Authorization required, but no authorization protocol specified

Invalid MIT-MAGIC-COOKIE-1 key
Authorization required, but no authorization protocol specified

Invalid MIT-MAGIC-COOKIE-1 key
Authorization required, but no authorization protocol specified

Invalid MIT-MAGIC-COOKIE-1 key
Authorization required, but no authorization protocol specified

Invalid MIT-MAGIC-COOKIE-1 key

     Program PROJWFC v.7.3.1 starts on 23Jul2026 at  2:55:59 

     This program is part of the open-source Quantum ESPRESSO suite
     for quantum simulation of materials; please cite
         "P. Giannozzi et al., J. Phys.:Condens. Matter 21 395502 (2009);
         "P. Giannozzi et al., J. Phys.:Condens. Matter 29 465901 (2017);
         "P. Giannozzi et al., J. Chem. Phys. 152 154105 (2020);
          URL http://www.quantum-espresso.org", 
     in publications or presentations arising from this work. More details at
     http://www.quantum-espresso.org/quote

     Parallel version (MPI), running on     1 processors

     MPI processes distributed on     1 nodes
     17923 MiB available memory on the printing compute node when the environment starts


     Reading xml data from directory:

     ./ir.save/

     IMPORTANT: XC functional enforced from input :
     Exchange-correlation= PBE
                           (   1   4   3   4   0   0   0)
     Any further DFT definition will be discarded
     Please, verify this is what you really want


     G-vector sticks info
     --------------------
     sticks:   dense  smooth     PW     G-vecs:    dense   smooth      PW
     Sum         931     475    151                18907     6735    1243

     Using Slab Decomposition


     Gaussian broadening (read from file): ngauss,degauss=   1    0.020000


     Calling projwave .... 
     Subspace diagonalization in iterative solution of the eigenvalue problem:
     a serial algorithm will be used


  Problem Sizes 
  natomwfc =           10
  nbnd     =           13
  nkstot   =           58
  npwx     =          869
  nkb      =           32


     Atomic states used for projection
     (read from pseudopotential files):

     state #   1: atom   1 (Ir ), wfc  1 (l=0 m= 1)
     state #   2: atom   1 (Ir ), wfc  2 (l=1 m= 1)
     state #   3: atom   1 (Ir ), wfc  2 (l=1 m= 2)
     state #   4: atom   1 (Ir ), wfc  2 (l=1 m= 3)
     state #   5: atom   1 (Ir ), wfc  3 (l=2 m= 1)
     state #   6: atom   1 (Ir ), wfc  3 (l=2 m= 2)
     state #   7: atom   1 (Ir ), wfc  3 (l=2 m= 3)
     state #   8: atom   1 (Ir ), wfc  3 (l=2 m= 4)
     state #   9: atom   1 (Ir ), wfc  3 (l=2 m= 5)
     state #  10: atom   1 (Ir ), wfc  4 (l=0 m= 1)

 k =   0.0000000000  0.0000000000  0.0000000000
==== e(   1) =   -70.31479 eV ==== 
     psi = 0.949*[#   1]+0.051*[#  10]
    |psi|^2 = 1.000
==== e(   2) =   -26.80503 eV ==== 
     psi = 0.333*[#   2]+0.333*[#   3]+0.333*[#   4]
    |psi|^2 = 1.000
==== e(   3) =   -26.80503 eV ==== 
     psi = 0.333*[#   2]+0.333*[#   3]+0.333*[#   4]
    |psi|^2 = 1.000
==== e(   4) =   -26.80503 eV ==== 
     psi = 0.333*[#   2]+0.333*[#   3]+0.333*[#   4]
    |psi|^2 = 1.000
==== e(   5) =    12.44133 eV ==== 
     psi = 0.948*[#  10]+0.051*[#   1]
    |psi|^2 = 0.998
==== e(   6) =    19.13723 eV ==== 
     psi = 0.333*[#   6]+0.333*[#   7]+0.333*[#   9]
    |psi|^2 = 0.999
==== e(   7) =    19.13723 eV ==== 
     psi = 0.333*[#   6]+0.333*[#   7]+0.333*[#   9]
    |psi|^2 = 0.999
==== e(   8) =    19.13723 eV ==== 
     psi = 0.333*[#   6]+0.333*[#   7]+0.333*[#   9]
    |psi|^2 = 0.999
==== e(   9) =    21.39045 eV ==== 
     psi = 0.500*[#   5]+0.500*[#   8]
    |psi|^2 = 1.000
==== e(  10) =    21.39045 eV ==== 
     psi = 0.500*[#   5]+0.500*[#   8]
    |psi|^2 = 1.000
==== e(  11) =    36.27143 eV ==== 

    |psi|^2 = 0.000
==== e(  12) =    41.17556 eV ==== 

    |psi|^2 = 0.000
==== e(  13) =    41.17556 eV ==== 

    |psi|^2 = 0.000

 k =  -0.1250000000  0.1250000000 -0.1250000000
==== e(   1) =   -70.30920 eV ==== 
     psi = 0.960*[#   1]+0.040*[#  10]
    |psi|^2 = 1.000
==== e(   2) =   -26.88246 eV ==== 
     psi = 0.331*[#   2]+0.331*[#   3]+0.331*[#   4]+0.006*[#  10]
    |psi|^2 = 1.000
==== e(   3) =   -26.81600 eV ==== 
     psi = 0.333*[#   2]+0.333*[#   3]+0.333*[#   4]
    |psi|^2 = 1.000
==== e(   4) =   -26.81600 eV ==== 
     psi = 0.333*[#   2]+0.333*[#   3]+0.333*[#   4]
    |psi|^2 = 1.000
==== e(   5) =    13.04277 eV ==== 
     psi = 0.948*[#  10]+0.040*[#   1]+0.002*[#   2]+0.002*[#   3]+0.002*[#   4]
          +0.002*[#   6]+0.002*[#   7]+0.002*[#   9]
    |psi|^2 = 0.999
==== e(   6) =    18.87097 eV ==== 
     psi = 0.330*[#   6]+0.330*[#   7]+0.330*[#   9]+0.005*[#  10]
    |psi|^2 = 0.997
==== e(   7) =    19.36103 eV ==== 
     psi = 0.326*[#   6]+0.326*[#   7]+0.326*[#   9]+0.010*[#   5]+0.010*[#   8]
          
    |psi|^2 = 0.999
==== e(   8) =    19.36103 eV ==== 
     psi = 0.326*[#   6]+0.326*[#   7]+0.326*[#   9]+0.010*[#   5]+0.010*[#   8]
          
    |psi|^2 = 0.999
==== e(   9) =    21.27897 eV ==== 
     psi = 0.490*[#   5]+0.490*[#   8]+0.007*[#   6]+0.007*[#   7]+0.007*[#   9]
          
    |psi|^2 = 0.999
==== e(  10) =    21.27897 eV ==== 
     psi = 0.490*[#   5]+0.490*[#   8]+0.007*[#   6]+0.007*[#   7]+0.007*[#   9]
          
    |psi|^2 = 0.999
==== e(  11) =    37.19687 eV ==== 

    |psi|^2 = 0.002
==== e(  12) =    38.86583 eV ==== 

    |psi|^2 = 0.001
==== e(  13) =    42.12674 eV ==== 

    |psi|^2 = 0.001

 k =  -0.2500000000  0.2500000000 -0.2500000000
==== e(   1) =   -70.29593 eV ==== 
     psi = 0.982*[#   1]+0.016*[#  10]
    |psi|^2 = 1.000
==== e(   2) =   -27.06730 eV ==== 
     psi = 0.328*[#   2]+0.328*[#   3]+0.328*[#   4]+0.015*[#  10]
    |psi|^2 = 1.000
==== e(   3) =   -26.84248 eV ==== 
     psi = 0.333*[#   2]+0.333*[#   3]+0.333*[#   4]
    |psi|^2 = 1.000
==== e(   4) =   -26.84248 eV ==== 
     psi = 0.333*[#   2]+0.333*[#   3]+0.333*[#   4]
    |psi|^2 = 1.000
==== e(   5) =    14.47131 eV ==== 
     psi = 0.839*[#  10]+0.044*[#   6]+0.044*[#   7]+0.044*[#   9]+0.018*[#   1]
          +0.003*[#   2]+0.003*[#   3]+0.003*[#   4]
    |psi|^2 = 0.998
==== e(   6) =    18.68540 eV ==== 
     psi = 0.284*[#   6]+0.284*[#   7]+0.284*[#   9]+0.125*[#  10]+0.002*[#   2]
          +0.002*[#   3]+0.002*[#   4]
    |psi|^2 = 0.983
==== e(   7) =    19.51899 eV ==== 
     psi = 0.234*[#   6]+0.234*[#   7]+0.234*[#   9]+0.148*[#   5]+0.148*[#   8]
          
    |psi|^2 = 0.998
==== e(   8) =    19.51899 eV ==== 
     psi = 0.234*[#   6]+0.234*[#   7]+0.234*[#   9]+0.148*[#   5]+0.148*[#   8]
          
    |psi|^2 = 0.998
==== e(   9) =    21.55539 eV ==== 
     psi = 0.351*[#   5]+0.351*[#   8]+0.099*[#   6]+0.099*[#   7]+0.099*[#   9]
          
    |psi|^2 = 0.997
==== e(  10) =    21.55539 eV ==== 
     psi = 0.351*[#   5]+0.351*[#   8]+0.099*[#   6]+0.099*[#   7]+0.099*[#   9]
          
    |psi|^2 = 0.997
==== e(  11) =    35.37862 eV ==== 
     psi = 0.003*[#  10]+0.003*[#   6]+0.003*[#   7]+0.003*[#   9]
    |psi|^2 = 0.010
==== e(  12) =    38.15745 eV ==== 
     psi = 0.002*[#   6]+0.002*[#   7]+0.002*[#   9]+0.002*[#  10]
    |psi|^2 = 0.007
==== e(  13) =    44.33885 eV ==== 

    |psi|^2 = 0.001

 k =  -0.3750000000  0.3750000000 -0.3750000000
==== e(   1) =   -70.28263 eV ==== 
     psi = 0.992*[#   1]+0.002*[#   6]+0.002*[#   7]+0.002*[#   9]
    |psi|^2 = 1.000
==== e(   2) =   -27.24819 eV ==== 
     psi = 0.329*[#   2]+0.329*[#   3]+0.329*[#   4]+0.011*[#  10]
    |psi|^2 = 1.000
==== e(   3) =   -26.86890 eV ==== 
     psi = 0.333*[#   2]+0.333*[#   3]+0.333*[#   4]
    |psi|^2 = 1.000
==== e(   4) =   -26.86890 eV ==== 
     psi = 0.333*[#   2]+0.333*[#   3]+0.333*[#   4]
    |psi|^2 = 1.000
==== e(   5) =    15.34065 eV ==== 
     psi = 0.408*[#  10]+0.194*[#   6]+0.194*[#   7]+0.194*[#   9]+0.006*[#   1]
          
    |psi|^2 = 0.998
==== e(   6) =    19.23035 eV ==== 
     psi = 0.270*[#   5]+0.270*[#   8]+0.153*[#   6]+0.153*[#   7]+0.153*[#   9]
          
    |psi|^2 = 0.999
==== e(   7) =    19.23035 eV ==== 
     psi = 0.270*[#   5]+0.270*[#   8]+0.153*[#   6]+0.153*[#   7]+0.153*[#   9]
          
    |psi|^2 = 0.999
==== e(   8) =    20.11996 eV ==== 
     psi = 0.464*[#  10]+0.116*[#   6]+0.116*[#   7]+0.116*[#   9]+0.003*[#   2]
          +0.003*[#   3]+0.003*[#   4]+0.002*[#   1]
    |psi|^2 = 0.823
==== e(   9) =    22.55597 eV ==== 
     psi = 0.229*[#   5]+0.229*[#   8]+0.180*[#   6]+0.180*[#   7]+0.180*[#   9]
          
    |psi|^2 = 0.998
==== e(  10) =    22.55597 eV ==== 
     psi = 0.229*[#   5]+0.229*[#   8]+0.180*[#   6]+0.180*[#   7]+0.180*[#   9]
          
    |psi|^2 = 0.998
==== e(  11) =    31.26877 eV ==== 
     psi = 0.111*[#  10]+0.019*[#   6]+0.019*[#   7]+0.019*[#   9]
    |psi|^2 = 0.171
==== e(  12) =    36.62299 eV ==== 
     psi = 0.004*[#  10]
    |psi|^2 = 0.007
==== e(  13) =    42.11381 eV ==== 

    |psi|^2 = 0.002

 k =   0.5000000000 -0.5000000000  0.5000000000
==== e(   1) =   -70.27704 eV ==== 
     psi = 0.986*[#   1]+0.004*[#   6]+0.004*[#   7]+0.004*[#   9]+0.003*[#  10]
          
    |psi|^2 = 1.000
==== e(   2) =   -27.32205 eV ==== 
     psi = 0.333*[#   2]+0.333*[#   3]+0.333*[#   4]
    |psi|^2 = 1.000
==== e(   3) =   -26.87967 eV ==== 
     psi = 0.333*[#   2]+0.333*[#   3]+0.333*[#   4]
    |psi|^2 = 1.000
==== e(   4) =   -26.87967 eV ==== 
     psi = 0.333*[#   2]+0.333*[#   3]+0.333*[#   4]
    |psi|^2 = 1.000
==== e(   5) =    15.41933 eV ==== 
     psi = 0.255*[#   6]+0.255*[#   7]+0.255*[#   9]+0.229*[#  10]+0.005*[#   1]
          
    |psi|^2 = 1.000
==== e(   6) =    19.06744 eV ==== 
     psi = 0.297*[#   5]+0.297*[#   8]+0.135*[#   6]+0.135*[#   7]+0.135*[#   9]
          
    |psi|^2 = 0.999
==== e(   7) =    19.06744 eV ==== 
     psi = 0.297*[#   5]+0.297*[#   8]+0.135*[#   6]+0.135*[#   7]+0.135*[#   9]
          
    |psi|^2 = 0.999
==== e(   8) =    21.92020 eV ==== 

    |psi|^2 = 0.000
==== e(   9) =    23.12382 eV ==== 
     psi = 0.203*[#   5]+0.203*[#   8]+0.198*[#   6]+0.198*[#   7]+0.198*[#   9]
          
    |psi|^2 = 1.000
==== e(  10) =    23.12382 eV ==== 
     psi = 0.203*[#   5]+0.203*[#   8]+0.198*[#   6]+0.198*[#   7]+0.198*[#   9]
          
    |psi|^2 = 1.000
==== e(  11) =    28.57132 eV ==== 
     psi = 0.766*[#  10]+0.074*[#   6]+0.074*[#   7]+0.074*[#   9]+0.009*[#   1]
          
    |psi|^2 = 0.997
==== e(  12) =    35.90416 eV ==== 

    |psi|^2 = 0.000
==== e(  13) =    40.67860 eV ==== 

    |psi|^2 = 0.000

 k =   0.0000000000  0.2500000000  0.0000000000
==== e(   1) =   -70.30740 eV ==== 
     psi = 0.963*[#   1]+0.037*[#  10]
    |psi|^2 = 1.000
==== e(   2) =   -26.88001 eV ==== 
     psi = 0.331*[#   2]+0.331*[#   3]+0.331*[#   4]+0.007*[#  10]
    |psi|^2 = 1.000
==== e(   3) =   -26.83379 eV ==== 
     psi = 0.333*[#   2]+0.333*[#   3]+0.333*[#   4]
    |psi|^2 = 1.000
==== e(   4) =   -26.83379 eV ==== 
     psi = 0.333*[#   2]+0.333*[#   3]+0.333*[#   4]
    |psi|^2 = 1.000
==== e(   5) =    13.24736 eV ==== 
     psi = 0.949*[#  10]+0.037*[#   1]+0.003*[#   5]+0.003*[#   8]+0.002*[#   2]
          +0.002*[#   3]+0.002*[#   4]
    |psi|^2 = 0.999
==== e(   6) =    18.59501 eV ==== 
     psi = 0.333*[#   6]+0.333*[#   7]+0.333*[#   9]
    |psi|^2 = 0.998
==== e(   7) =    19.57466 eV ==== 
     psi = 0.332*[#   6]+0.332*[#   7]+0.332*[#   9]
    |psi|^2 = 0.998
==== e(   8) =    19.57466 eV ==== 
     psi = 0.332*[#   6]+0.332*[#   7]+0.332*[#   9]
    |psi|^2 = 0.998
==== e(   9) =    20.78289 eV ==== 
     psi = 0.496*[#   5]+0.496*[#   8]+0.006*[#  10]
    |psi|^2 = 0.998
==== e(  10) =    21.61414 eV ==== 
     psi = 0.500*[#   5]+0.500*[#   8]
    |psi|^2 = 1.000
==== e(  11) =    37.57390 eV ==== 

    |psi|^2 = 0.002
==== e(  12) =    39.82892 eV ==== 

    |psi|^2 = 0.002
==== e(  13) =    41.25430 eV ==== 

    |psi|^2 = 0.001

 k =  -0.1250000000  0.3750000000 -0.1250000000
==== e(   1) =   -70.29671 eV ==== 
     psi = 0.981*[#   1]+0.018*[#  10]
    |psi|^2 = 1.000
==== e(   2) =   -27.01698 eV ==== 
     psi = 0.328*[#   2]+0.328*[#   3]+0.328*[#   4]+0.014*[#  10]
    |psi|^2 = 1.000
==== e(   3) =   -26.86487 eV ==== 
     psi = 0.333*[#   2]+0.333*[#   3]+0.333*[#   4]
    |psi|^2 = 1.000
==== e(   4) =   -26.85679 eV ==== 
     psi = 0.333*[#   2]+0.333*[#   3]+0.333*[#   4]
    |psi|^2 = 1.000
==== e(   5) =    14.45992 eV ==== 
     psi = 0.900*[#  10]+0.019*[#   1]+0.014*[#   5]+0.014*[#   8]+0.013*[#   6]
          +0.013*[#   7]+0.013*[#   9]+0.004*[#   2]+0.004*[#   3]+0.004*[#   4]
          
    |psi|^2 = 0.999
==== e(   6) =    18.15552 eV ==== 
     psi = 0.326*[#   6]+0.326*[#   7]+0.326*[#   9]+0.015*[#  10]
    |psi|^2 = 0.995
==== e(   7) =    19.63921 eV ==== 
     psi = 0.228*[#   5]+0.228*[#   8]+0.180*[#   6]+0.180*[#   7]+0.180*[#   9]
          
    |psi|^2 = 0.996
==== e(   8) =    19.94383 eV ==== 
     psi = 0.283*[#   6]+0.283*[#   7]+0.283*[#   9]+0.073*[#   5]+0.073*[#   8]
          
    |psi|^2 = 0.997
==== e(   9) =    20.88095 eV ==== 
     psi = 0.255*[#   5]+0.255*[#   8]+0.144*[#   6]+0.144*[#   7]+0.144*[#   9]
          +0.050*[#  10]
    |psi|^2 = 0.994
==== e(  10) =    21.94752 eV ==== 
     psi = 0.426*[#   5]+0.426*[#   8]+0.049*[#   6]+0.049*[#   7]+0.049*[#   9]
          
    |psi|^2 = 0.999
==== e(  11) =    37.10106 eV ==== 
     psi = 0.001*[#   6]+0.001*[#   7]+0.001*[#   9]
    |psi|^2 = 0.005
==== e(  12) =    38.93870 eV ==== 
     psi = 0.001*[#   6]+0.001*[#   7]+0.001*[#   9]
    |psi|^2 = 0.004
==== e(  13) =    41.32671 eV ==== 

    |psi|^2 = 0.003

 k =  -0.2500000000  0.5000000000 -0.2500000000
==== e(   1) =   -70.28332 eV ==== 
     psi = 0.994*[#   1]+0.001*[#   6]+0.001*[#   7]+0.001*[#   9]+0.001*[#  10]
          
    |psi|^2 = 1.000
==== e(   2) =   -27.18919 eV ==== 
     psi = 0.328*[#   2]+0.328*[#   3]+0.328*[#   4]+0.013*[#  10]
    |psi|^2 = 1.000
==== e(   3) =   -26.89237 eV ==== 
     psi = 0.333*[#   2]+0.333*[#   3]+0.333*[#   4]
    |psi|^2 = 1.000
==== e(   4) =   -26.89113 eV ==== 
     psi = 0.333*[#   2]+0.333*[#   3]+0.333*[#   4]
    |psi|^2 = 1.000
==== e(   5) =    15.67217 eV ==== 
     psi = 0.532*[#  10]+0.138*[#   6]+0.138*[#   7]+0.138*[#   9]+0.020*[#   5]
          +0.020*[#   8]+0.005*[#   1]+0.002*[#   2]+0.002*[#   3]+0.002*[#   4]
          
    |psi|^2 = 0.997
==== e(   6) =    18.59780 eV ==== 
     psi = 0.202*[#  10]+0.201*[#   6]+0.201*[#   7]+0.201*[#   9]+0.075*[#   5]
          +0.075*[#   8]+0.002*[#   2]+0.002*[#   3]+0.002*[#   4]
    |psi|^2 = 0.961
==== e(   7) =    19.04100 eV ==== 
     psi = 0.272*[#   5]+0.272*[#   8]+0.146*[#   6]+0.146*[#   7]+0.146*[#   9]
          +0.016*[#  10]
    |psi|^2 = 0.997
==== e(   8) =    19.79589 eV ==== 
     psi = 0.229*[#   5]+0.229*[#   8]+0.179*[#   6]+0.179*[#   7]+0.179*[#   9]
          
    |psi|^2 = 0.997
==== e(   9) =    22.50744 eV ==== 
     psi = 0.188*[#  10]+0.169*[#   6]+0.169*[#   7]+0.169*[#   9]+0.131*[#   5]
          +0.131*[#   8]
    |psi|^2 = 0.959
==== e(  10) =    22.76740 eV ==== 
     psi = 0.270*[#   5]+0.270*[#   8]+0.153*[#   6]+0.153*[#   7]+0.153*[#   9]
          
    |psi|^2 = 0.998
==== e(  11) =    32.83666 eV ==== 
     psi = 0.041*[#  10]+0.010*[#   6]+0.010*[#   7]+0.010*[#   9]
    |psi|^2 = 0.072
==== e(  12) =    37.81642 eV ==== 
     psi = 0.004*[#  10]
    |psi|^2 = 0.007
==== e(  13) =    40.44291 eV ==== 
     psi = 0.001*[#   6]+0.001*[#   7]+0.001*[#   9]
    |psi|^2 = 0.003

 k =   0.6250000000 -0.3750000000  0.6250000000
==== e(   1) =   -70.27524 eV ==== 
     psi = 0.988*[#   1]+0.003*[#  10]+0.003*[#   6]+0.003*[#   7]+0.003*[#   9]
          
    |psi|^2 = 1.000
==== e(   2) =   -27.29093 eV ==== 
     psi = 0.332*[#   2]+0.332*[#   3]+0.332*[#   4]+0.002*[#  10]
    |psi|^2 = 1.000
==== e(   3) =   -26.92585 eV ==== 
     psi = 0.332*[#   2]+0.332*[#   3]+0.332*[#   4]
    |psi|^2 = 1.000
==== e(   4) =   -26.89736 eV ==== 
     psi = 0.333*[#   2]+0.333*[#   3]+0.333*[#   4]
    |psi|^2 = 1.000
==== e(   5) =    15.89322 eV ==== 
     psi = 0.253*[#   6]+0.253*[#   7]+0.253*[#   9]+0.226*[#  10]+0.004*[#   5]
          +0.004*[#   8]+0.003*[#   1]
    |psi|^2 = 0.999
==== e(   6) =    18.66639 eV ==== 
     psi = 0.361*[#   5]+0.361*[#   8]+0.088*[#   6]+0.088*[#   7]+0.088*[#   9]
          
    |psi|^2 = 0.986
==== e(   7) =    19.51852 eV ==== 
     psi = 0.301*[#   5]+0.301*[#   8]+0.132*[#   6]+0.132*[#   7]+0.132*[#   9]
          
    |psi|^2 = 0.998
==== e(   8) =    20.18307 eV ==== 
     psi = 0.189*[#   6]+0.189*[#   7]+0.189*[#   9]+0.073*[#  10]+0.062*[#   5]
          +0.062*[#   8]
    |psi|^2 = 0.765
==== e(   9) =    23.16113 eV ==== 
     psi = 0.201*[#   6]+0.201*[#   7]+0.201*[#   9]+0.199*[#   5]+0.199*[#   8]
          
    |psi|^2 = 1.000
==== e(  10) =    24.71731 eV ==== 
     psi = 0.116*[#  10]+0.078*[#   6]+0.078*[#   7]+0.078*[#   9]+0.071*[#   5]
          +0.071*[#   8]+0.002*[#   1]
    |psi|^2 = 0.495
==== e(  11) =    28.79416 eV ==== 
     psi = 0.573*[#  10]+0.054*[#   6]+0.054*[#   7]+0.054*[#   9]+0.007*[#   1]
          
    |psi|^2 = 0.742
==== e(  12) =    36.78669 eV ==== 
     psi = 0.001*[#  10]
    |psi|^2 = 0.003
==== e(  13) =    39.92123 eV ==== 

    |psi|^2 = 0.001

 k =   0.5000000000 -0.2500000000  0.5000000000
==== e(   1) =   -70.27709 eV ==== 
     psi = 0.991*[#   1]+0.003*[#   6]+0.003*[#   7]+0.003*[#   9]+0.001*[#  10]
          
    |psi|^2 = 1.000
==== e(   2) =   -27.26664 eV ==== 
     psi = 0.331*[#   2]+0.331*[#   3]+0.331*[#   4]+0.005*[#  10]
    |psi|^2 = 1.000
==== e(   3) =   -26.93601 eV ==== 
     psi = 0.332*[#   2]+0.332*[#   3]+0.332*[#   4]
    |psi|^2 = 1.000
==== e(   4) =   -26.87988 eV ==== 
     psi = 0.333*[#   2]+0.333*[#   3]+0.333*[#   4]
    |psi|^2 = 1.000
==== e(   5) =    15.91259 eV ==== 
     psi = 0.287*[#  10]+0.235*[#   6]+0.235*[#   7]+0.235*[#   9]+0.003*[#   1]
          +0.001*[#   2]+0.001*[#   3]+0.001*[#   4]
    |psi|^2 = 0.998
==== e(   6) =    18.79309 eV ==== 
     psi = 0.314*[#   5]+0.314*[#   8]+0.121*[#   6]+0.121*[#   7]+0.121*[#   9]
          +0.002*[#  10]
    |psi|^2 = 0.992
==== e(   7) =    19.51040 eV ==== 
     psi = 0.320*[#   5]+0.320*[#   8]+0.119*[#   6]+0.119*[#   7]+0.119*[#   9]
          
    |psi|^2 = 0.998
==== e(   8) =    19.90639 eV ==== 
     psi = 0.191*[#  10]+0.158*[#   6]+0.158*[#   7]+0.158*[#   9]+0.074*[#   5]
          +0.074*[#   8]+0.002*[#   2]+0.002*[#   3]+0.002*[#   4]+0.001*[#   1]
          
    |psi|^2 = 0.819
==== e(   9) =    22.39811 eV ==== 
     psi = 0.213*[#   6]+0.213*[#   7]+0.213*[#   9]+0.179*[#   5]+0.179*[#   8]
          
    |psi|^2 = 0.997
==== e(  10) =    24.43015 eV ==== 
     psi = 0.256*[#  10]+0.120*[#   6]+0.120*[#   7]+0.120*[#   9]+0.110*[#   5]
          +0.110*[#   8]+0.003*[#   1]
    |psi|^2 = 0.837
==== e(  11) =    30.04986 eV ==== 
     psi = 0.252*[#  10]+0.029*[#   6]+0.029*[#   7]+0.029*[#   9]+0.002*[#   1]
          
    |psi|^2 = 0.342
==== e(  12) =    36.96230 eV ==== 
     psi = 0.001*[#  10]
    |psi|^2 = 0.005
==== e(  13) =    39.06997 eV ==== 

    |psi|^2 = 0.001

 k =   0.3750000000 -0.1250000000  0.3750000000
==== e(   1) =   -70.28781 eV ==== 
     psi = 0.992*[#   1]+0.005*[#  10]+0.001*[#   6]+0.001*[#   7]+0.001*[#   9]
          
    |psi|^2 = 1.000
==== e(   2) =   -27.13283 eV ==== 
     psi = 0.328*[#   2]+0.328*[#   3]+0.328*[#   4]+0.015*[#  10]
    |psi|^2 = 1.000
==== e(   3) =   -26.91400 eV ==== 
     psi = 0.332*[#   2]+0.332*[#   3]+0.332*[#   4]
    |psi|^2 = 1.000
==== e(   4) =   -26.84872 eV ==== 
     psi = 0.333*[#   2]+0.333*[#   3]+0.333*[#   4]
    |psi|^2 = 1.000
==== e(   5) =    15.42212 eV ==== 
     psi = 0.722*[#  10]+0.082*[#   6]+0.082*[#   7]+0.082*[#   9]+0.008*[#   1]
          +0.005*[#   5]+0.005*[#   8]+0.004*[#   2]+0.004*[#   3]+0.004*[#   4]
          
    |psi|^2 = 0.997
==== e(   6) =    18.43428 eV ==== 
     psi = 0.289*[#   6]+0.289*[#   7]+0.289*[#   9]+0.106*[#  10]+0.002*[#   2]
          +0.002*[#   3]+0.002*[#   4]
    |psi|^2 = 0.981
==== e(   7) =    19.27374 eV ==== 
     psi = 0.266*[#   5]+0.266*[#   8]+0.143*[#   6]+0.143*[#   7]+0.143*[#   9]
          +0.026*[#  10]
    |psi|^2 = 0.990
==== e(   8) =    19.82127 eV ==== 
     psi = 0.259*[#   5]+0.259*[#   8]+0.160*[#   6]+0.160*[#   7]+0.160*[#   9]
          
    |psi|^2 = 0.998
==== e(   9) =    21.11476 eV ==== 
     psi = 0.239*[#   5]+0.239*[#   8]+0.173*[#   6]+0.173*[#   7]+0.173*[#   9]
          
    |psi|^2 = 0.997
==== e(  10) =    22.98836 eV ==== 
     psi = 0.227*[#   5]+0.227*[#   8]+0.142*[#   6]+0.142*[#   7]+0.142*[#   9]
          +0.108*[#  10]
    |psi|^2 = 0.989
==== e(  11) =    34.34149 eV ==== 
     psi = 0.013*[#  10]+0.005*[#   6]+0.005*[#   7]+0.005*[#   9]
    |psi|^2 = 0.029
==== e(  12) =    38.15557 eV ==== 
     psi = 0.002*[#   6]+0.002*[#   7]+0.002*[#   9]+0.001*[#  10]
    |psi|^2 = 0.007
==== e(  13) =    40.37731 eV ==== 
     psi = 0.001*[#  10]
    |psi|^2 = 0.004

 k =   0.2500000000  0.0000000000  0.2500000000
==== e(   1) =   -70.30109 eV ==== 
     psi = 0.974*[#   1]+0.025*[#  10]
    |psi|^2 = 1.000
==== e(   2) =   -26.97299 eV ==== 
     psi = 0.329*[#   2]+0.329*[#   3]+0.329*[#   4]+0.012*[#  10]
    |psi|^2 = 1.000
==== e(   3) =   -26.86461 eV ==== 
     psi = 0.333*[#   2]+0.333*[#   3]+0.333*[#   4]
    |psi|^2 = 1.000
==== e(   4) =   -26.82220 eV ==== 
     psi = 0.333*[#   2]+0.333*[#   3]+0.333*[#   4]
    |psi|^2 = 1.000
==== e(   5) =    13.96754 eV ==== 
     psi = 0.932*[#  10]+0.026*[#   1]+0.009*[#   6]+0.009*[#   7]+0.009*[#   9]
          +0.004*[#   2]+0.004*[#   3]+0.004*[#   4]+0.002*[#   5]+0.002*[#   8]
          
    |psi|^2 = 0.999
==== e(   6) =    18.46793 eV ==== 
     psi = 0.331*[#   6]+0.331*[#   7]+0.331*[#   9]
    |psi|^2 = 0.995
==== e(   7) =    19.57544 eV ==== 
     psi = 0.258*[#   6]+0.258*[#   7]+0.258*[#   9]+0.104*[#   5]+0.104*[#   8]
          +0.013*[#  10]
    |psi|^2 = 0.996
==== e(   8) =    19.73385 eV ==== 
     psi = 0.333*[#   6]+0.333*[#   7]+0.333*[#   9]
    |psi|^2 = 0.999
==== e(   9) =    20.73918 eV ==== 
     psi = 0.499*[#   5]+0.499*[#   8]
    |psi|^2 = 0.998
==== e(  10) =    21.80859 eV ==== 
     psi = 0.393*[#   5]+0.393*[#   8]+0.065*[#   6]+0.065*[#   7]+0.065*[#   9]
          +0.017*[#  10]
    |psi|^2 = 0.998
==== e(  11) =    37.52296 eV ==== 

    |psi|^2 = 0.003
==== e(  12) =    38.36248 eV ==== 
     psi = 0.001*[#   6]+0.001*[#   7]+0.001*[#   9]
    |psi|^2 = 0.004
==== e(  13) =    41.20112 eV ==== 

    |psi|^2 = 0.001

 k =   0.0000000000  0.5000000000  0.0000000000
==== e(   1) =   -70.28975 eV ==== 
     psi = 0.990*[#   1]+0.008*[#  10]
    |psi|^2 = 1.000
==== e(   2) =   -27.05679 eV ==== 
     psi = 0.327*[#   2]+0.327*[#   3]+0.327*[#   4]+0.018*[#  10]
    |psi|^2 = 1.000
==== e(   3) =   -26.90268 eV ==== 
     psi = 0.333*[#   2]+0.333*[#   3]+0.333*[#   4]
    |psi|^2 = 1.000
==== e(   4) =   -26.90268 eV ==== 
     psi = 0.333*[#   2]+0.333*[#   3]+0.333*[#   4]
    |psi|^2 = 1.000
==== e(   5) =    15.17645 eV ==== 
     psi = 0.806*[#  10]+0.084*[#   5]+0.084*[#   8]+0.010*[#   1]+0.005*[#   2]
          +0.005*[#   3]+0.005*[#   4]
    |psi|^2 = 0.998
==== e(   6) =    17.48209 eV ==== 
     psi = 0.332*[#   6]+0.332*[#   7]+0.332*[#   9]
    |psi|^2 = 0.997
==== e(   7) =    19.85387 eV ==== 
     psi = 0.412*[#   5]+0.412*[#   8]+0.163*[#  10]+0.001*[#   2]+0.001*[#   3]
          +0.001*[#   4]
    |psi|^2 = 0.991
==== e(   8) =    20.82377 eV ==== 
     psi = 0.331*[#   6]+0.331*[#   7]+0.331*[#   9]
    |psi|^2 = 0.993
==== e(   9) =    20.82377 eV ==== 
     psi = 0.331*[#   6]+0.331*[#   7]+0.331*[#   9]
    |psi|^2 = 0.993
==== e(  10) =    22.18774 eV ==== 
     psi = 0.500*[#   5]+0.500*[#   8]
    |psi|^2 = 0.999
==== e(  11) =    39.12369 eV ==== 
     psi = 0.002*[#   6]+0.002*[#   7]+0.002*[#   9]
    |psi|^2 = 0.007
==== e(  12) =    39.12369 eV ==== 
     psi = 0.002*[#   6]+0.002*[#   7]+0.002*[#   9]
    |psi|^2 = 0.007
==== e(  13) =    39.37088 eV ==== 
     psi = 0.002*[#   5]+0.002*[#   8]+0.001*[#  10]
    |psi|^2 = 0.005

 k =  -0.1250000000  0.6250000000 -0.1250000000
==== e(   1) =   -70.27899 eV ==== 
     psi = 0.996*[#   1]+0.001*[#   5]+0.001*[#   8]
    |psi|^2 = 1.000
==== e(   2) =   -27.16699 eV ==== 
     psi = 0.328*[#   2]+0.328*[#   3]+0.328*[#   4]+0.015*[#  10]
    |psi|^2 = 1.000
==== e(   3) =   -26.94837 eV ==== 
     psi = 0.332*[#   2]+0.332*[#   3]+0.332*[#   4]
    |psi|^2 = 1.000
==== e(   4) =   -26.93353 eV ==== 
     psi = 0.333*[#   2]+0.333*[#   3]+0.333*[#   4]
    |psi|^2 = 1.000
==== e(   5) =    16.10715 eV ==== 
     psi = 0.471*[#  10]+0.210*[#   5]+0.210*[#   8]+0.031*[#   6]+0.031*[#   7]
          +0.031*[#   9]+0.003*[#   2]+0.003*[#   3]+0.003*[#   4]+0.002*[#   1]
          
    |psi|^2 = 0.995
==== e(   6) =    17.20332 eV ==== 
     psi = 0.307*[#   6]+0.307*[#   7]+0.307*[#   9]+0.025*[#   5]+0.025*[#   8]
          +0.020*[#  10]
    |psi|^2 = 0.995
==== e(   7) =    19.46429 eV ==== 
     psi = 0.228*[#  10]+0.202*[#   5]+0.202*[#   8]+0.116*[#   6]+0.116*[#   7]
          +0.116*[#   9]+0.002*[#   2]+0.002*[#   3]+0.002*[#   4]
    |psi|^2 = 0.984
==== e(   8) =    21.08764 eV ==== 
     psi = 0.212*[#   6]+0.212*[#   7]+0.212*[#   9]+0.178*[#   5]+0.178*[#   8]
          
    |psi|^2 = 0.992
==== e(   9) =    22.62158 eV ==== 
     psi = 0.228*[#  10]+0.205*[#   6]+0.205*[#   7]+0.205*[#   9]+0.056*[#   5]
          +0.056*[#   8]+0.002*[#   1]
    |psi|^2 = 0.960
==== e(  10) =    22.86870 eV ==== 
     psi = 0.321*[#   5]+0.321*[#   8]+0.119*[#   6]+0.119*[#   7]+0.119*[#   9]
          
    |psi|^2 = 0.998
==== e(  11) =    34.62246 eV ==== 
     psi = 0.021*[#  10]+0.005*[#   6]+0.005*[#   7]+0.005*[#   9]
    |psi|^2 = 0.039
==== e(  12) =    37.62318 eV ==== 
     psi = 0.002*[#   6]+0.002*[#   7]+0.002*[#   9]
    |psi|^2 = 0.008
==== e(  13) =    38.25362 eV ==== 
     psi = 0.012*[#  10]+0.004*[#   5]+0.004*[#   8]
    |psi|^2 = 0.020

 k =   0.7500000000 -0.2500000000  0.7500000000
==== e(   1) =   -70.27091 eV ==== 
     psi = 0.989*[#   1]+0.006*[#  10]+0.001*[#   6]+0.001*[#   7]+0.001*[#   9]
          
    |psi|^2 = 1.000
==== e(   2) =   -27.23586 eV ==== 
     psi = 0.331*[#   2]+0.331*[#   3]+0.331*[#   4]+0.004*[#  10]
    |psi|^2 = 1.000
==== e(   3) =   -27.01520 eV ==== 
     psi = 0.332*[#   2]+0.332*[#   3]+0.332*[#   4]+0.001*[#   6]+0.001*[#   7]
          +0.001*[#   9]+0.001*[#  10]
    |psi|^2 = 1.000
==== e(   4) =   -26.93979 eV ==== 
     psi = 0.333*[#   2]+0.333*[#   3]+0.333*[#   4]
    |psi|^2 = 1.000
==== e(   5) =    16.52819 eV ==== 
     psi = 0.189*[#   6]+0.189*[#   7]+0.189*[#   9]+0.149*[#  10]+0.138*[#   5]
          +0.138*[#   8]
    |psi|^2 = 0.996
==== e(   6) =    17.71373 eV ==== 
     psi = 0.300*[#   5]+0.300*[#   8]+0.120*[#   6]+0.120*[#   7]+0.120*[#   9]
          +0.010*[#  10]+0.002*[#   2]+0.002*[#   3]+0.002*[#   4]
    |psi|^2 = 0.973
==== e(   7) =    19.26319 eV ==== 
     psi = 0.252*[#   6]+0.252*[#   7]+0.252*[#   9]+0.156*[#  10]+0.021*[#   5]
          +0.021*[#   8]+0.001*[#   2]+0.001*[#   3]+0.001*[#   4]
    |psi|^2 = 0.958
==== e(   8) =    20.76494 eV ==== 
     psi = 0.316*[#   5]+0.316*[#   8]+0.120*[#   6]+0.120*[#   7]+0.120*[#   9]
          
    |psi|^2 = 0.994
==== e(   9) =    23.25830 eV ==== 
     psi = 0.212*[#   6]+0.212*[#   7]+0.212*[#   9]+0.181*[#   5]+0.181*[#   8]
          
    |psi|^2 = 1.000
==== e(  10) =    25.80151 eV ==== 
     psi = 0.365*[#  10]+0.084*[#   6]+0.084*[#   7]+0.084*[#   9]+0.034*[#   5]
          +0.034*[#   8]+0.006*[#   1]
    |psi|^2 = 0.691
==== e(  11) =    29.77532 eV ==== 
     psi = 0.276*[#  10]+0.018*[#   6]+0.018*[#   7]+0.018*[#   9]+0.003*[#   1]
          +0.001*[#   5]+0.001*[#   8]
    |psi|^2 = 0.335
==== e(  12) =    36.32335 eV ==== 
     psi = 0.021*[#  10]+0.004*[#   5]+0.004*[#   8]
    |psi|^2 = 0.030
==== e(  13) =    37.57341 eV ==== 
     psi = 0.002*[#   5]+0.002*[#   8]
    |psi|^2 = 0.005

 k =   0.6250000000 -0.1250000000  0.6250000000
==== e(   1) =   -70.27014 eV ==== 
     psi = 0.988*[#   1]+0.008*[#  10]+0.001*[#   6]+0.001*[#   7]+0.001*[#   9]
          
    |psi|^2 = 1.000
==== e(   2) =   -27.22204 eV ==== 
     psi = 0.331*[#   2]+0.331*[#   3]+0.331*[#   4]+0.001*[#   5]+0.001*[#   8]
          +0.001*[#   6]+0.001*[#   7]+0.001*[#   9]
    |psi|^2 = 1.000
==== e(   3) =   -27.06575 eV ==== 
     psi = 0.331*[#   2]+0.331*[#   3]+0.331*[#   4]+0.001*[#   6]+0.001*[#   7]
          +0.001*[#   9]+0.001*[#  10]
    |psi|^2 = 1.000
==== e(   4) =   -26.91771 eV ==== 
     psi = 0.333*[#   2]+0.333*[#   3]+0.333*[#   4]
    |psi|^2 = 1.000
==== e(   5) =    16.89768 eV ==== 
     psi = 0.256*[#   6]+0.256*[#   7]+0.256*[#   9]+0.140*[#  10]+0.042*[#   5]
          +0.042*[#   8]
    |psi|^2 = 0.996
==== e(   6) =    18.06855 eV ==== 
     psi = 0.402*[#   5]+0.402*[#   8]+0.045*[#   6]+0.045*[#   7]+0.045*[#   9]
          +0.024*[#  10]+0.002*[#   2]+0.002*[#   3]+0.002*[#   4]
    |psi|^2 = 0.970
==== e(   7) =    19.13132 eV ==== 
     psi = 0.284*[#   6]+0.284*[#   7]+0.284*[#   9]+0.030*[#   5]+0.030*[#   8]
          +0.003*[#  10]+0.002*[#   2]+0.002*[#   3]+0.002*[#   4]
    |psi|^2 = 0.921
==== e(   8) =    20.50137 eV ==== 
     psi = 0.403*[#   5]+0.403*[#   8]+0.063*[#   6]+0.063*[#   7]+0.063*[#   9]
          
    |psi|^2 = 0.995
==== e(   9) =    22.45233 eV ==== 
     psi = 0.270*[#   6]+0.270*[#   7]+0.270*[#   9]+0.094*[#   5]+0.094*[#   8]
          
    |psi|^2 = 0.997
==== e(  10) =    26.50039 eV ==== 
     psi = 0.566*[#  10]+0.053*[#   6]+0.053*[#   7]+0.053*[#   9]+0.012*[#   5]
          +0.012*[#   8]+0.008*[#   1]
    |psi|^2 = 0.759
==== e(  11) =    29.77554 eV ==== 
     psi = 0.226*[#  10]+0.020*[#   6]+0.020*[#   7]+0.020*[#   9]+0.008*[#   5]
          +0.008*[#   8]+0.003*[#   1]
    |psi|^2 = 0.308
==== e(  12) =    34.68389 eV ==== 
     psi = 0.012*[#  10]+0.003*[#   5]+0.003*[#   8]+0.002*[#   6]+0.002*[#   7]
          +0.002*[#   9]
    |psi|^2 = 0.024
==== e(  13) =    39.74319 eV ==== 
     psi = 0.003*[#   5]+0.003*[#   8]
    |psi|^2 = 0.005

 k =   0.5000000000  0.0000000000  0.5000000000
==== e(   1) =   -70.27711 eV ==== 
     psi = 0.995*[#   1]+0.001*[#   6]+0.001*[#   7]+0.001*[#   9]
    |psi|^2 = 1.000
==== e(   2) =   -27.17722 eV ==== 
     psi = 0.329*[#   2]+0.329*[#   3]+0.329*[#   4]+0.011*[#  10]+0.001*[#   5]
          +0.001*[#   8]
    |psi|^2 = 1.000
==== e(   3) =   -27.02627 eV ==== 
     psi = 0.332*[#   2]+0.332*[#   3]+0.332*[#   4]+0.002*[#   6]+0.002*[#   7]
          +0.002*[#   9]
    |psi|^2 = 1.000
==== e(   4) =   -26.88002 eV ==== 
     psi = 0.333*[#   2]+0.333*[#   3]+0.333*[#   4]
    |psi|^2 = 1.000
==== e(   5) =    16.85473 eV ==== 
     psi = 0.495*[#  10]+0.160*[#   6]+0.160*[#   7]+0.160*[#   9]+0.003*[#   2]
          +0.003*[#   3]+0.003*[#   4]+0.002*[#   5]+0.002*[#   8]+0.001*[#   1]
          
    |psi|^2 = 0.989
==== e(   6) =    18.20245 eV ==== 
     psi = 0.326*[#   6]+0.326*[#   7]+0.326*[#   9]+0.002*[#   2]+0.002*[#   3]
          +0.002*[#   4]
    |psi|^2 = 0.983
==== e(   7) =    18.59339 eV ==== 
     psi = 0.397*[#   5]+0.397*[#   8]+0.056*[#  10]+0.040*[#   6]+0.040*[#   7]
          +0.040*[#   9]+0.001*[#   2]+0.001*[#   3]+0.001*[#   4]
    |psi|^2 = 0.975
==== e(   8) =    20.38933 eV ==== 
     psi = 0.498*[#   5]+0.498*[#   8]
    |psi|^2 = 0.996
==== e(   9) =    21.25560 eV ==== 
     psi = 0.332*[#   6]+0.332*[#   7]+0.332*[#   9]
    |psi|^2 = 0.997
==== e(  10) =    24.80452 eV ==== 
     psi = 0.383*[#  10]+0.128*[#   6]+0.128*[#   7]+0.128*[#   9]+0.097*[#   5]
          +0.097*[#   8]+0.003*[#   1]
    |psi|^2 = 0.965
==== e(  11) =    33.00404 eV ==== 
     psi = 0.049*[#  10]+0.003*[#   6]+0.003*[#   7]+0.003*[#   9]+0.002*[#   5]
          +0.002*[#   8]
    |psi|^2 = 0.064
==== e(  12) =    35.37755 eV ==== 
     psi = 0.005*[#   6]+0.005*[#   7]+0.005*[#   9]
    |psi|^2 = 0.016
==== e(  13) =    39.39508 eV ==== 

    |psi|^2 = 0.002

 k =   0.0000000000  0.7500000000  0.0000000000
==== e(   1) =   -70.27200 eV ==== 
     psi = 0.993*[#   1]+0.003*[#  10]+0.002*[#   5]+0.002*[#   8]
    |psi|^2 = 1.000
==== e(   2) =   -27.22650 eV ==== 
     psi = 0.330*[#   2]+0.330*[#   3]+0.330*[#   4]+0.011*[#  10]
    |psi|^2 = 1.000
==== e(   3) =   -26.97101 eV ==== 
     psi = 0.333*[#   2]+0.333*[#   3]+0.333*[#   4]
    |psi|^2 = 1.000
==== e(   4) =   -26.97101 eV ==== 
     psi = 0.333*[#   2]+0.333*[#   3]+0.333*[#   4]
    |psi|^2 = 1.000
==== e(   5) =    15.92743 eV ==== 
     psi = 0.386*[#   5]+0.386*[#   8]+0.221*[#  10]+0.001*[#   1]
    |psi|^2 = 0.998
==== e(   6) =    16.55558 eV ==== 
     psi = 0.333*[#   6]+0.333*[#   7]+0.333*[#   9]
    |psi|^2 = 0.999
==== e(   7) =    21.51245 eV ==== 
     psi = 0.647*[#  10]+0.101*[#   5]+0.101*[#   8]+0.005*[#   1]+0.002*[#   2]
          +0.002*[#   3]+0.002*[#   4]
    |psi|^2 = 0.862
==== e(   8) =    22.55941 eV ==== 
     psi = 0.329*[#   6]+0.329*[#   7]+0.329*[#   9]
    |psi|^2 = 0.989
==== e(   9) =    22.55941 eV ==== 
     psi = 0.329*[#   6]+0.329*[#   7]+0.329*[#   9]
    |psi|^2 = 0.989
==== e(  10) =    22.81798 eV ==== 
     psi = 0.500*[#   5]+0.500*[#   8]
    |psi|^2 = 1.000
==== e(  11) =    35.27546 eV ==== 
     psi = 0.004*[#   6]+0.004*[#   7]+0.004*[#   9]
    |psi|^2 = 0.011
==== e(  12) =    35.27546 eV ==== 
     psi = 0.004*[#   6]+0.004*[#   7]+0.004*[#   9]
    |psi|^2 = 0.011
==== e(  13) =    35.34586 eV ==== 
     psi = 0.112*[#  10]+0.010*[#   5]+0.010*[#   8]
    |psi|^2 = 0.133

 k =   0.8750000000 -0.1250000000  0.8750000000
==== e(   1) =   -70.26645 eV ==== 
     psi = 0.984*[#   1]+0.012*[#  10]+0.002*[#   5]+0.002*[#   8]
    |psi|^2 = 1.000
==== e(   2) =   -27.26022 eV ==== 
     psi = 0.332*[#   2]+0.332*[#   3]+0.332*[#   4]+0.003*[#  10]
    |psi|^2 = 1.000
==== e(   3) =   -27.02172 eV ==== 
     psi = 0.333*[#   2]+0.333*[#   3]+0.333*[#   4]
    |psi|^2 = 1.000
==== e(   4) =   -26.98187 eV ==== 
     psi = 0.333*[#   2]+0.333*[#   3]+0.333*[#   4]
    |psi|^2 = 1.000
==== e(   5) =    16.06330 eV ==== 
     psi = 0.414*[#   5]+0.414*[#   8]+0.091*[#  10]+0.026*[#   6]+0.026*[#   7]
          +0.026*[#   9]
    |psi|^2 = 0.998
==== e(   6) =    16.57863 eV ==== 
     psi = 0.306*[#   6]+0.306*[#   7]+0.306*[#   9]+0.037*[#   5]+0.037*[#   8]
          +0.003*[#  10]
    |psi|^2 = 0.997
==== e(   7) =    21.22780 eV ==== 
     psi = 0.231*[#   6]+0.231*[#   7]+0.231*[#   9]+0.133*[#  10]+0.012*[#   5]
          +0.012*[#   8]+0.001*[#   1]+0.001*[#   2]+0.001*[#   3]+0.001*[#   4]
          
    |psi|^2 = 0.855
==== e(   8) =    22.36265 eV ==== 
     psi = 0.386*[#   5]+0.386*[#   8]+0.073*[#   6]+0.073*[#   7]+0.073*[#   9]
          
    |psi|^2 = 0.992
==== e(   9) =    23.39070 eV ==== 
     psi = 0.259*[#   6]+0.259*[#   7]+0.259*[#   9]+0.112*[#   5]+0.112*[#   8]
          
    |psi|^2 = 1.000
==== e(  10) =    25.54692 eV ==== 
     psi = 0.274*[#  10]+0.099*[#   6]+0.099*[#   7]+0.099*[#   9]+0.015*[#   5]
          +0.015*[#   8]+0.006*[#   1]
    |psi|^2 = 0.607
==== e(  11) =    31.09642 eV ==== 
     psi = 0.359*[#  10]+0.011*[#   5]+0.011*[#   8]+0.006*[#   1]+0.002*[#   6]
          +0.002*[#   7]+0.002*[#   9]
    |psi|^2 = 0.395
==== e(  12) =    34.11955 eV ==== 
     psi = 0.108*[#  10]+0.008*[#   5]+0.008*[#   8]+0.002*[#   1]
    |psi|^2 = 0.129
==== e(  13) =    34.75745 eV ==== 
     psi = 0.002*[#   5]+0.002*[#   8]
    |psi|^2 = 0.007

 k =   0.7500000000  0.0000000000  0.7500000000
==== e(   1) =   -70.26568 eV ==== 
     psi = 0.983*[#   1]+0.015*[#  10]
    |psi|^2 = 1.000
==== e(   2) =   -27.21151 eV ==== 
     psi = 0.332*[#   2]+0.332*[#   3]+0.332*[#   4]+0.002*[#   6]+0.002*[#   7]
          +0.002*[#   9]
    |psi|^2 = 1.000
==== e(   3) =   -27.10869 eV ==== 
     psi = 0.331*[#   2]+0.331*[#   3]+0.331*[#   4]+0.001*[#   5]+0.001*[#   8]
          
    |psi|^2 = 1.000
==== e(   4) =   -26.95984 eV ==== 
     psi = 0.333*[#   2]+0.333*[#   3]+0.333*[#   4]
    |psi|^2 = 1.000
==== e(   5) =    16.54834 eV ==== 
     psi = 0.276*[#   5]+0.276*[#   8]+0.132*[#   6]+0.132*[#   7]+0.132*[#   9]
          +0.049*[#  10]
    |psi|^2 = 0.998
==== e(   6) =    17.33971 eV ==== 
     psi = 0.204*[#   5]+0.204*[#   8]+0.189*[#   6]+0.189*[#   7]+0.189*[#   9]
          +0.002*[#   2]+0.002*[#   3]+0.002*[#   4]
    |psi|^2 = 0.980
==== e(   7) =    19.95534 eV ==== 
     psi = 0.301*[#   6]+0.301*[#   7]+0.301*[#   9]+0.002*[#   2]+0.002*[#   3]
          +0.002*[#   4]
    |psi|^2 = 0.907
==== e(   8) =    21.67786 eV ==== 
     psi = 0.495*[#   5]+0.495*[#   8]
    |psi|^2 = 0.991
==== e(   9) =    22.88931 eV ==== 
     psi = 0.333*[#   6]+0.333*[#   7]+0.333*[#   9]
    |psi|^2 = 0.998
==== e(  10) =    28.10806 eV ==== 
     psi = 0.734*[#  10]+0.013*[#   1]+0.010*[#   6]+0.010*[#   7]+0.010*[#   9]
          +0.004*[#   5]+0.004*[#   8]
    |psi|^2 = 0.786
==== e(  11) =    29.27834 eV ==== 
     psi = 0.031*[#   6]+0.031*[#   7]+0.031*[#   9]
    |psi|^2 = 0.093
==== e(  12) =    32.62828 eV ==== 
     psi = 0.174*[#  10]+0.013*[#   5]+0.013*[#   8]+0.003*[#   1]
    |psi|^2 = 0.204
==== e(  13) =    36.71171 eV ==== 
     psi = 0.005*[#   5]+0.005*[#   8]
    |psi|^2 = 0.009

 k =   0.0000000000 -1.0000000000  0.0000000000
==== e(   1) =   -70.26473 eV ==== 
     psi = 0.978*[#   1]+0.017*[#  10]+0.003*[#   5]+0.003*[#   8]
    |psi|^2 = 1.000
==== e(   2) =   -27.29479 eV ==== 
     psi = 0.333*[#   2]+0.333*[#   3]+0.333*[#   4]
    |psi|^2 = 1.000
==== e(   3) =   -26.99936 eV ==== 
     psi = 0.333*[#   2]+0.333*[#   3]+0.333*[#   4]
    |psi|^2 = 1.000
==== e(   4) =   -26.99936 eV ==== 
     psi = 0.333*[#   2]+0.333*[#   3]+0.333*[#   4]
    |psi|^2 = 1.000
==== e(   5) =    15.71239 eV ==== 
     psi = 0.461*[#   5]+0.461*[#   8]+0.077*[#  10]+0.001*[#   1]
    |psi|^2 = 1.000
==== e(   6) =    16.21068 eV ==== 
     psi = 0.333*[#   6]+0.333*[#   7]+0.333*[#   9]
    |psi|^2 = 0.999
==== e(   7) =    23.09907 eV ==== 
     psi = 0.500*[#   5]+0.500*[#   8]
    |psi|^2 = 1.000
==== e(   8) =    23.59234 eV ==== 
     psi = 0.333*[#   6]+0.333*[#   7]+0.333*[#   9]
    |psi|^2 = 1.000
==== e(   9) =    23.59234 eV ==== 
     psi = 0.333*[#   6]+0.333*[#   7]+0.333*[#   9]
    |psi|^2 = 1.000
==== e(  10) =    24.09992 eV ==== 

    |psi|^2 = 0.000
==== e(  11) =    31.43892 eV ==== 
     psi = 0.887*[#  10]+0.036*[#   5]+0.036*[#   8]+0.021*[#   1]
    |psi|^2 = 0.981
==== e(  12) =    33.39232 eV ==== 

    |psi|^2 = 0.000
==== e(  13) =    33.39232 eV ==== 

    |psi|^2 = 0.000

 k =  -0.2500000000  0.5000000000  0.0000000000
==== e(   1) =   -70.28604 eV ==== 
     psi = 0.994*[#   1]+0.004*[#  10]
    |psi|^2 = 1.000
==== e(   2) =   -27.11273 eV ==== 
     psi = 0.328*[#   2]+0.328*[#   3]+0.328*[#   4]+0.016*[#  10]
    |psi|^2 = 1.000
==== e(   3) =   -26.93903 eV ==== 
     psi = 0.332*[#   2]+0.332*[#   3]+0.332*[#   4]
    |psi|^2 = 1.000
==== e(   4) =   -26.87579 eV ==== 
     psi = 0.333*[#   2]+0.333*[#   3]+0.333*[#   4]
    |psi|^2 = 1.000
==== e(   5) =    15.74174 eV ==== 
     psi = 0.773*[#  10]+0.056*[#   5]+0.056*[#   8]+0.031*[#   6]+0.031*[#   7]
          +0.031*[#   9]+0.006*[#   1]+0.005*[#   2]+0.005*[#   3]+0.005*[#   4]
          
    |psi|^2 = 0.996
==== e(   6) =    17.74461 eV ==== 
     psi = 0.331*[#   6]+0.331*[#   7]+0.331*[#   9]
    |psi|^2 = 0.994
==== e(   7) =    19.08984 eV ==== 
     psi = 0.317*[#   5]+0.317*[#   8]+0.117*[#   6]+0.117*[#   7]+0.117*[#   9]
          +0.008*[#  10]
    |psi|^2 = 0.994
==== e(   8) =    20.83715 eV ==== 
     psi = 0.331*[#   6]+0.331*[#   7]+0.331*[#   9]
    |psi|^2 = 0.994
==== e(   9) =    20.89770 eV ==== 
     psi = 0.388*[#   5]+0.388*[#   8]+0.077*[#  10]+0.045*[#   6]+0.045*[#   7]
          +0.045*[#   9]
    |psi|^2 = 0.990
==== e(  10) =    23.04067 eV ==== 
     psi = 0.235*[#   5]+0.235*[#   8]+0.137*[#   6]+0.137*[#   7]+0.137*[#   9]
          +0.109*[#  10]
    |psi|^2 = 0.991
==== e(  11) =    35.63310 eV ==== 
     psi = 0.007*[#  10]+0.003*[#   6]+0.003*[#   7]+0.003*[#   9]
    |psi|^2 = 0.018
==== e(  12) =    37.91646 eV ==== 
     psi = 0.003*[#   6]+0.003*[#   7]+0.003*[#   9]
    |psi|^2 = 0.009
==== e(  13) =    39.77203 eV ==== 
     psi = 0.004*[#  10]+0.002*[#   5]+0.002*[#   8]
    |psi|^2 = 0.008

 k =   0.6250000000 -0.3750000000  0.8750000000
==== e(   1) =   -70.27531 eV ==== 
     psi = 0.994*[#   1]+0.001*[#   6]+0.001*[#   7]+0.001*[#   9]+0.001*[#  10]
          
    |psi|^2 = 1.000
==== e(   2) =   -27.21093 eV ==== 
     psi = 0.330*[#   2]+0.330*[#   3]+0.330*[#   4]+0.008*[#  10]
    |psi|^2 = 1.000
==== e(   3) =   -26.99701 eV ==== 
     psi = 0.332*[#   2]+0.332*[#   3]+0.332*[#   4]+0.001*[#   6]+0.001*[#   7]
          +0.001*[#   9]
    |psi|^2 = 1.000
==== e(   4) =   -26.90687 eV ==== 
     psi = 0.333*[#   2]+0.333*[#   3]+0.333*[#   4]
    |psi|^2 = 1.000
==== e(   5) =    16.66153 eV ==== 
     psi = 0.325*[#  10]+0.187*[#   6]+0.187*[#   7]+0.187*[#   9]+0.050*[#   5]
          +0.050*[#   8]+0.002*[#   2]+0.002*[#   3]+0.002*[#   4]
    |psi|^2 = 0.993
==== e(   6) =    18.20416 eV ==== 
     psi = 0.296*[#   5]+0.296*[#   8]+0.105*[#   6]+0.105*[#   7]+0.105*[#   9]
          +0.056*[#  10]+0.002*[#   2]+0.002*[#   3]+0.002*[#   4]
    |psi|^2 = 0.968
==== e(   7) =    18.51449 eV ==== 
     psi = 0.239*[#   6]+0.239*[#   7]+0.239*[#   9]+0.094*[#   5]+0.094*[#   8]
          +0.082*[#  10]
    |psi|^2 = 0.988
==== e(   8) =    20.51697 eV ==== 
     psi = 0.323*[#   5]+0.323*[#   8]+0.106*[#   6]+0.106*[#   7]+0.106*[#   9]
          +0.023*[#  10]
    |psi|^2 = 0.988
==== e(   9) =    22.27191 eV ==== 
     psi = 0.224*[#   6]+0.224*[#   7]+0.224*[#   9]+0.146*[#   5]+0.146*[#   8]
          +0.014*[#  10]
    |psi|^2 = 0.981
==== e(  10) =    24.82717 eV ==== 
     psi = 0.380*[#  10]+0.122*[#   6]+0.122*[#   7]+0.122*[#   9]+0.083*[#   5]
          +0.083*[#   8]+0.004*[#   1]
    |psi|^2 = 0.918
==== e(  11) =    31.63584 eV ==== 
     psi = 0.099*[#  10]+0.010*[#   6]+0.010*[#   7]+0.010*[#   9]+0.002*[#   5]
          +0.002*[#   8]
    |psi|^2 = 0.136
==== e(  12) =    36.56122 eV ==== 
     psi = 0.002*[#   6]+0.002*[#   7]+0.002*[#   9]
    |psi|^2 = 0.009
==== e(  13) =    38.15543 eV ==== 
     psi = 0.004*[#  10]+0.002*[#   5]+0.002*[#   8]
    |psi|^2 = 0.008

 k =   0.5000000000 -0.2500000000  0.7500000000
==== e(   1) =   -70.27087 eV ==== 
     psi = 0.987*[#   1]+0.008*[#  10]+0.002*[#   6]+0.002*[#   7]+0.002*[#   9]
          
    |psi|^2 = 1.000
==== e(   2) =   -27.25321 eV ==== 
     psi = 0.332*[#   2]+0.332*[#   3]+0.332*[#   4]+0.001*[#   5]+0.001*[#   8]
          
    |psi|^2 = 1.000
==== e(   3) =   -27.01517 eV ==== 
     psi = 0.332*[#   2]+0.332*[#   3]+0.332*[#   4]+0.002*[#  10]+0.001*[#   6]
          +0.001*[#   7]+0.001*[#   9]
    |psi|^2 = 1.000
==== e(   4) =   -26.92357 eV ==== 
     psi = 0.333*[#   2]+0.333*[#   3]+0.333*[#   4]
    |psi|^2 = 1.000
==== e(   5) =    16.72190 eV ==== 
     psi = 0.272*[#   6]+0.272*[#   7]+0.272*[#   9]+0.164*[#  10]+0.005*[#   5]
          +0.005*[#   8]+0.001*[#   2]+0.001*[#   3]+0.001*[#   4]
    |psi|^2 = 0.996
==== e(   6) =    18.03147 eV ==== 
     psi = 0.423*[#   5]+0.423*[#   8]+0.045*[#   6]+0.045*[#   7]+0.045*[#   9]
          
    |psi|^2 = 0.982
==== e(   7) =    19.34456 eV ==== 
     psi = 0.261*[#   6]+0.261*[#   7]+0.261*[#   9]+0.048*[#   5]+0.048*[#   8]
          +0.001*[#   2]+0.001*[#   3]+0.001*[#   4]
    |psi|^2 = 0.883
==== e(   8) =    20.25498 eV ==== 
     psi = 0.358*[#   5]+0.358*[#   8]+0.092*[#   6]+0.092*[#   7]+0.092*[#   9]
          
    |psi|^2 = 0.993
==== e(   9) =    22.86617 eV ==== 
     psi = 0.243*[#   6]+0.243*[#   7]+0.243*[#   9]+0.129*[#   5]+0.129*[#   8]
          +0.012*[#  10]
    |psi|^2 = 0.998
==== e(  10) =    27.05483 eV ==== 
     psi = 0.026*[#   5]+0.026*[#   6]+0.026*[#   7]+0.026*[#   8]+0.026*[#   9]
          
    |psi|^2 = 0.128
==== e(  11) =    28.14540 eV ==== 
     psi = 0.795*[#  10]+0.055*[#   6]+0.055*[#   7]+0.055*[#   9]+0.012*[#   1]
          +0.005*[#   5]+0.005*[#   8]
    |psi|^2 = 0.982
==== e(  12) =    36.86753 eV ==== 
     psi = 0.005*[#  10]+0.003*[#   5]+0.003*[#   8]
    |psi|^2 = 0.012
==== e(  13) =    37.12523 eV ==== 
     psi = 0.002*[#   5]+0.002*[#   8]
    |psi|^2 = 0.005

 k =   0.7500000000 -0.2500000000  1.0000000000
==== e(   1) =   -70.27088 eV ==== 
     psi = 0.991*[#   1]+0.005*[#  10]+0.001*[#   5]+0.001*[#   8]
    |psi|^2 = 1.000
==== e(   2) =   -27.21671 eV ==== 
     psi = 0.330*[#   2]+0.330*[#   3]+0.330*[#   4]+0.008*[#  10]
    |psi|^2 = 1.000
==== e(   3) =   -27.01278 eV ==== 
     psi = 0.332*[#   2]+0.332*[#   3]+0.332*[#   4]
    |psi|^2 = 1.000
==== e(   4) =   -26.96000 eV ==== 
     psi = 0.333*[#   2]+0.333*[#   3]+0.333*[#   4]
    |psi|^2 = 1.000
==== e(   5) =    16.56342 eV ==== 
     psi = 0.392*[#   5]+0.392*[#   8]+0.190*[#  10]+0.005*[#   6]+0.005*[#   7]
          +0.005*[#   9]+0.001*[#   2]+0.001*[#   3]+0.001*[#   4]
    |psi|^2 = 0.992
==== e(   6) =    17.01860 eV ==== 
     psi = 0.331*[#   6]+0.331*[#   7]+0.331*[#   9]
    |psi|^2 = 0.995
==== e(   7) =    19.47726 eV ==== 
     psi = 0.205*[#  10]+0.199*[#   6]+0.199*[#   7]+0.199*[#   9]+0.080*[#   5]
          +0.080*[#   8]+0.002*[#   2]+0.002*[#   3]+0.002*[#   4]
    |psi|^2 = 0.967
==== e(   8) =    22.04061 eV ==== 
     psi = 0.458*[#   5]+0.458*[#   8]+0.044*[#  10]
    |psi|^2 = 0.964
==== e(   9) =    22.55162 eV ==== 
     psi = 0.330*[#   6]+0.330*[#   7]+0.330*[#   9]
    |psi|^2 = 0.990
==== e(  10) =    24.94945 eV ==== 
     psi = 0.397*[#  10]+0.125*[#   6]+0.125*[#   7]+0.125*[#   9]+0.056*[#   5]
          +0.056*[#   8]+0.006*[#   1]
    |psi|^2 = 0.889
==== e(  11) =    32.65008 eV ==== 
     psi = 0.118*[#  10]+0.007*[#   5]+0.007*[#   8]+0.003*[#   6]+0.003*[#   7]
          +0.003*[#   9]
    |psi|^2 = 0.141
==== e(  12) =    34.56958 eV ==== 
     psi = 0.004*[#   6]+0.004*[#   7]+0.004*[#   9]
    |psi|^2 = 0.013
==== e(  13) =    36.55981 eV ==== 
     psi = 0.024*[#  10]+0.005*[#   5]+0.005*[#   8]
    |psi|^2 = 0.035

 k =   0.6250000000 -0.1250000000  0.8750000000
==== e(   1) =   -70.26645 eV ==== 
     psi = 0.985*[#   1]+0.013*[#  10]
    |psi|^2 = 1.000
==== e(   2) =   -27.20716 eV ==== 
     psi = 0.331*[#   2]+0.331*[#   3]+0.331*[#   4]+0.001*[#   6]+0.001*[#   7]
          +0.001*[#   9]
    |psi|^2 = 1.000
==== e(   3) =   -27.08854 eV ==== 
     psi = 0.332*[#   2]+0.332*[#   3]+0.332*[#   4]+0.001*[#   6]+0.001*[#   7]
          +0.001*[#   9]
    |psi|^2 = 1.000
==== e(   4) =   -26.97206 eV ==== 
     psi = 0.333*[#   2]+0.333*[#   3]+0.333*[#   4]+0.001*[#   5]+0.001*[#   8]
          
    |psi|^2 = 1.000
==== e(   5) =    16.94548 eV ==== 
     psi = 0.329*[#   5]+0.329*[#   8]+0.095*[#   6]+0.095*[#   7]+0.095*[#   9]
          +0.048*[#  10]
    |psi|^2 = 0.993
==== e(   6) =    17.53507 eV ==== 
     psi = 0.224*[#   6]+0.224*[#   7]+0.224*[#   9]+0.151*[#   5]+0.151*[#   8]
          +0.002*[#  10]+0.002*[#   2]+0.002*[#   3]+0.002*[#   4]
    |psi|^2 = 0.980
==== e(   7) =    19.10014 eV ==== 
     psi = 0.289*[#   6]+0.289*[#   7]+0.289*[#   9]+0.054*[#  10]+0.013*[#   5]
          +0.013*[#   8]+0.002*[#   2]+0.002*[#   3]+0.002*[#   4]
    |psi|^2 = 0.952
==== e(   8) =    21.30249 eV ==== 
     psi = 0.446*[#   5]+0.446*[#   8]+0.026*[#   6]+0.026*[#   7]+0.026*[#   9]
          +0.009*[#  10]
    |psi|^2 = 0.981
==== e(   9) =    23.13221 eV ==== 
     psi = 0.314*[#   6]+0.314*[#   7]+0.314*[#   9]+0.022*[#   5]+0.022*[#   8]
          +0.010*[#  10]
    |psi|^2 = 0.997
==== e(  10) =    27.95996 eV ==== 
     psi = 0.537*[#  10]+0.039*[#   6]+0.039*[#   7]+0.039*[#   9]+0.015*[#   5]
          +0.015*[#   8]+0.010*[#   1]
    |psi|^2 = 0.695
==== e(  11) =    29.43112 eV ==== 
     psi = 0.233*[#  10]+0.009*[#   5]+0.009*[#   8]+0.007*[#   6]+0.007*[#   7]
          +0.007*[#   9]+0.004*[#   1]
    |psi|^2 = 0.274
==== e(  12) =    33.57220 eV ==== 
     psi = 0.068*[#  10]+0.007*[#   5]+0.007*[#   8]+0.002*[#   6]+0.002*[#   7]
          +0.002*[#   9]+0.001*[#   1]
    |psi|^2 = 0.089
==== e(  13) =    35.69421 eV ==== 
     psi = 0.004*[#   5]+0.004*[#   8]+0.003*[#  10]
    |psi|^2 = 0.011

 k =   0.5000000000  0.0000000000  0.7500000000
==== e(   1) =   -70.26829 eV ==== 
     psi = 0.988*[#   1]+0.010*[#  10]
    |psi|^2 = 1.000
==== e(   2) =   -27.17898 eV ==== 
     psi = 0.331*[#   2]+0.331*[#   3]+0.331*[#   4]+0.003*[#  10]+0.001*[#   5]
          +0.001*[#   8]
    |psi|^2 = 1.000
==== e(   3) =   -27.11278 eV ==== 
     psi = 0.332*[#   2]+0.332*[#   3]+0.332*[#   4]+0.002*[#   6]+0.002*[#   7]
          +0.002*[#   9]
    |psi|^2 = 1.000
==== e(   4) =   -26.94540 eV ==== 
     psi = 0.333*[#   2]+0.333*[#   3]+0.333*[#   4]
    |psi|^2 = 1.000
==== e(   5) =    17.56299 eV ==== 
     psi = 0.313*[#   5]+0.313*[#   8]+0.114*[#   6]+0.114*[#   7]+0.114*[#   9]
          +0.022*[#  10]
    |psi|^2 = 0.993
==== e(   6) =    17.81180 eV ==== 
     psi = 0.179*[#   5]+0.179*[#   8]+0.155*[#   6]+0.155*[#   7]+0.155*[#   9]
          +0.137*[#  10]+0.002*[#   2]+0.002*[#   3]+0.002*[#   4]
    |psi|^2 = 0.965
==== e(   7) =    18.30999 eV ==== 
     psi = 0.323*[#   6]+0.323*[#   7]+0.323*[#   9]+0.002*[#   2]+0.002*[#   3]
          +0.002*[#   4]
    |psi|^2 = 0.975
==== e(   8) =    21.00353 eV ==== 
     psi = 0.474*[#   5]+0.474*[#   8]+0.010*[#   6]+0.010*[#   7]+0.010*[#   9]
          +0.003*[#  10]
    |psi|^2 = 0.982
==== e(   9) =    22.57377 eV ==== 
     psi = 0.331*[#   6]+0.331*[#   7]+0.331*[#   9]
    |psi|^2 = 0.992
==== e(  10) =    26.74506 eV ==== 
     psi = 0.664*[#  10]+0.051*[#   6]+0.051*[#   7]+0.051*[#   9]+0.015*[#   5]
          +0.015*[#   8]+0.010*[#   1]
    |psi|^2 = 0.858
==== e(  11) =    31.85426 eV ==== 
     psi = 0.139*[#  10]+0.013*[#   5]+0.013*[#   8]+0.002*[#   1]
    |psi|^2 = 0.166
==== e(  12) =    32.32359 eV ==== 
     psi = 0.010*[#   6]+0.010*[#   7]+0.010*[#   9]
    |psi|^2 = 0.031
==== e(  13) =    37.23969 eV ==== 
     psi = 0.003*[#  10]+0.003*[#   5]+0.003*[#   8]
    |psi|^2 = 0.011

 k =  -0.2500000000 -1.0000000000  0.0000000000
==== e(   1) =   -70.26461 eV ==== 
     psi = 0.980*[#   1]+0.017*[#  10]+0.002*[#   5]+0.002*[#   8]
    |psi|^2 = 1.000
==== e(   2) =   -27.25208 eV ==== 
     psi = 0.332*[#   2]+0.332*[#   3]+0.332*[#   4]
    |psi|^2 = 1.000
==== e(   3) =   -27.04311 eV ==== 
     psi = 0.333*[#   2]+0.333*[#   3]+0.333*[#   4]
    |psi|^2 = 1.000
==== e(   4) =   -27.00132 eV ==== 
     psi = 0.333*[#   2]+0.333*[#   3]+0.333*[#   4]+0.001*[#   5]+0.001*[#   8]
          
    |psi|^2 = 1.000
==== e(   5) =    16.29950 eV ==== 
     psi = 0.471*[#   5]+0.471*[#   8]+0.053*[#  10]
    |psi|^2 = 0.997
==== e(   6) =    16.73677 eV ==== 
     psi = 0.331*[#   6]+0.331*[#   7]+0.331*[#   9]
    |psi|^2 = 0.996
==== e(   7) =    20.70183 eV ==== 
     psi = 0.287*[#   6]+0.287*[#   7]+0.287*[#   9]
    |psi|^2 = 0.863
==== e(   8) =    22.15559 eV ==== 
     psi = 0.486*[#   5]+0.486*[#   8]+0.017*[#  10]
    |psi|^2 = 0.990
==== e(   9) =    23.59443 eV ==== 
     psi = 0.333*[#   6]+0.333*[#   7]+0.333*[#   9]
    |psi|^2 = 1.000
==== e(  10) =    27.37095 eV ==== 
     psi = 0.045*[#   6]+0.045*[#   7]+0.045*[#   9]
    |psi|^2 = 0.136
==== e(  11) =    30.15919 eV ==== 
     psi = 0.839*[#  10]+0.033*[#   5]+0.033*[#   8]+0.017*[#   1]
    |psi|^2 = 0.923
==== e(  12) =    32.78911 eV ==== 

    |psi|^2 = 0.003
==== e(  13) =    34.25668 eV ==== 
     psi = 0.048*[#  10]+0.007*[#   5]+0.007*[#   8]+0.001*[#   1]
    |psi|^2 = 0.064

 k =  -0.5000000000 -1.0000000000  0.0000000000
==== e(   1) =   -70.26467 eV ==== 
     psi = 0.983*[#   1]+0.016*[#  10]
    |psi|^2 = 1.000
==== e(   2) =   -27.14834 eV ==== 
     psi = 0.332*[#   2]+0.332*[#   3]+0.332*[#   4]+0.002*[#   6]+0.002*[#   7]
          +0.002*[#   9]
    |psi|^2 = 1.000
==== e(   3) =   -27.14834 eV ==== 
     psi = 0.332*[#   2]+0.332*[#   3]+0.332*[#   4]+0.002*[#   6]+0.002*[#   7]
          +0.002*[#   9]
    |psi|^2 = 1.000
==== e(   4) =   -27.00349 eV ==== 
     psi = 0.332*[#   2]+0.332*[#   3]+0.332*[#   4]+0.002*[#   5]+0.002*[#   8]
          
    |psi|^2 = 1.000
==== e(   5) =    17.14985 eV ==== 
     psi = 0.492*[#   5]+0.492*[#   8]+0.001*[#   2]+0.001*[#   3]+0.001*[#   4]
          
    |psi|^2 = 0.988
==== e(   6) =    18.27353 eV ==== 
     psi = 0.322*[#   6]+0.322*[#   7]+0.322*[#   9]+0.002*[#   2]+0.002*[#   3]
          +0.002*[#   4]
    |psi|^2 = 0.972
==== e(   7) =    18.27353 eV ==== 
     psi = 0.322*[#   6]+0.322*[#   7]+0.322*[#   9]+0.002*[#   2]+0.002*[#   3]
          +0.002*[#   4]
    |psi|^2 = 0.972
==== e(   8) =    20.91842 eV ==== 
     psi = 0.458*[#   5]+0.458*[#   8]+0.082*[#  10]
    |psi|^2 = 0.997
==== e(   9) =    23.59645 eV ==== 
     psi = 0.333*[#   6]+0.333*[#   7]+0.333*[#   9]
    |psi|^2 = 1.000
==== e(  10) =    29.55722 eV ==== 
     psi = 0.876*[#  10]+0.042*[#   5]+0.042*[#   8]+0.017*[#   1]
    |psi|^2 = 0.977
==== e(  11) =    30.66005 eV ==== 
     psi = 0.009*[#   6]+0.009*[#   7]+0.009*[#   9]
    |psi|^2 = 0.026
==== e(  12) =    30.66005 eV ==== 
     psi = 0.009*[#   6]+0.009*[#   7]+0.009*[#   9]
    |psi|^2 = 0.026
==== e(  13) =    34.50124 eV ==== 
     psi = 0.006*[#   5]+0.006*[#   8]
    |psi|^2 = 0.012

 k =   0.0000000000  0.0000000000  0.0000000000
==== e(   1) =   -70.31459 eV ==== 
     psi = 0.949*[#   1]+0.051*[#  10]
    |psi|^2 = 1.000
==== e(   2) =   -26.80478 eV ==== 
     psi = 0.333*[#   2]+0.333*[#   3]+0.333*[#   4]
    |psi|^2 = 1.000
==== e(   3) =   -26.80478 eV ==== 
     psi = 0.333*[#   2]+0.333*[#   3]+0.333*[#   4]
    |psi|^2 = 1.000
==== e(   4) =   -26.80478 eV ==== 
     psi = 0.333*[#   2]+0.333*[#   3]+0.333*[#   4]
    |psi|^2 = 1.000
==== e(   5) =    12.44142 eV ==== 
     psi = 0.948*[#  10]+0.051*[#   1]
    |psi|^2 = 0.998
==== e(   6) =    19.13753 eV ==== 
     psi = 0.333*[#   6]+0.333*[#   7]+0.333*[#   9]
    |psi|^2 = 0.999
==== e(   7) =    19.13753 eV ==== 
     psi = 0.333*[#   6]+0.333*[#   7]+0.333*[#   9]
    |psi|^2 = 0.999
==== e(   8) =    19.13753 eV ==== 
     psi = 0.333*[#   6]+0.333*[#   7]+0.333*[#   9]
    |psi|^2 = 0.999
==== e(   9) =    21.39066 eV ==== 
     psi = 0.500*[#   5]+0.500*[#   8]
    |psi|^2 = 1.000
==== e(  10) =    21.39066 eV ==== 
     psi = 0.500*[#   5]+0.500*[#   8]
    |psi|^2 = 1.000
==== e(  11) =    36.27148 eV ==== 

    |psi|^2 = 0.000
==== e(  12) =    41.17564 eV ==== 

    |psi|^2 = 0.000
==== e(  13) =    41.17564 eV ==== 

    |psi|^2 = 0.000

 k =  -0.1250000000  0.1250000000 -0.1250000000
==== e(   1) =   -70.30900 eV ==== 
     psi = 0.960*[#   1]+0.040*[#  10]
    |psi|^2 = 1.000
==== e(   2) =   -26.88221 eV ==== 
     psi = 0.331*[#   2]+0.331*[#   3]+0.331*[#   4]+0.006*[#  10]
    |psi|^2 = 1.000
==== e(   3) =   -26.81574 eV ==== 
     psi = 0.333*[#   2]+0.333*[#   3]+0.333*[#   4]
    |psi|^2 = 1.000
==== e(   4) =   -26.81574 eV ==== 
     psi = 0.333*[#   2]+0.333*[#   3]+0.333*[#   4]
    |psi|^2 = 1.000
==== e(   5) =    13.04286 eV ==== 
     psi = 0.948*[#  10]+0.040*[#   1]+0.002*[#   2]+0.002*[#   3]+0.002*[#   4]
          +0.002*[#   6]+0.002*[#   7]+0.002*[#   9]
    |psi|^2 = 0.999
==== e(   6) =    18.87125 eV ==== 
     psi = 0.330*[#   6]+0.330*[#   7]+0.330*[#   9]+0.005*[#  10]
    |psi|^2 = 0.997
==== e(   7) =    19.36133 eV ==== 
     psi = 0.326*[#   6]+0.326*[#   7]+0.326*[#   9]+0.010*[#   5]+0.010*[#   8]
          
    |psi|^2 = 0.999
==== e(   8) =    19.36133 eV ==== 
     psi = 0.326*[#   6]+0.326*[#   7]+0.326*[#   9]+0.010*[#   5]+0.010*[#   8]
          
    |psi|^2 = 0.999
==== e(   9) =    21.27919 eV ==== 
     psi = 0.490*[#   5]+0.490*[#   8]+0.007*[#   6]+0.007*[#   7]+0.007*[#   9]
          
    |psi|^2 = 0.999
==== e(  10) =    21.27919 eV ==== 
     psi = 0.490*[#   5]+0.490*[#   8]+0.007*[#   6]+0.007*[#   7]+0.007*[#   9]
          
    |psi|^2 = 0.999
==== e(  11) =    37.19692 eV ==== 

    |psi|^2 = 0.002
==== e(  12) =    38.86592 eV ==== 

    |psi|^2 = 0.001
==== e(  13) =    42.12682 eV ==== 

    |psi|^2 = 0.001

 k =  -0.2500000000  0.2500000000 -0.2500000000
==== e(   1) =   -70.29573 eV ==== 
     psi = 0.982*[#   1]+0.016*[#  10]
    |psi|^2 = 1.000
==== e(   2) =   -27.06705 eV ==== 
     psi = 0.328*[#   2]+0.328*[#   3]+0.328*[#   4]+0.015*[#  10]
    |psi|^2 = 1.000
==== e(   3) =   -26.84223 eV ==== 
     psi = 0.333*[#   2]+0.333*[#   3]+0.333*[#   4]
    |psi|^2 = 1.000
==== e(   4) =   -26.84223 eV ==== 
     psi = 0.333*[#   2]+0.333*[#   3]+0.333*[#   4]
    |psi|^2 = 1.000
==== e(   5) =    14.47142 eV ==== 
     psi = 0.839*[#  10]+0.044*[#   6]+0.044*[#   7]+0.044*[#   9]+0.018*[#   1]
          +0.003*[#   2]+0.003*[#   3]+0.003*[#   4]
    |psi|^2 = 0.998
==== e(   6) =    18.68564 eV ==== 
     psi = 0.284*[#   6]+0.284*[#   7]+0.284*[#   9]+0.125*[#  10]+0.002*[#   2]
          +0.002*[#   3]+0.002*[#   4]
    |psi|^2 = 0.983
==== e(   7) =    19.51926 eV ==== 
     psi = 0.234*[#   6]+0.234*[#   7]+0.234*[#   9]+0.148*[#   5]+0.148*[#   8]
          
    |psi|^2 = 0.998
==== e(   8) =    19.51926 eV ==== 
     psi = 0.234*[#   6]+0.234*[#   7]+0.234*[#   9]+0.148*[#   5]+0.148*[#   8]
          
    |psi|^2 = 0.998
==== e(   9) =    21.55564 eV ==== 
     psi = 0.351*[#   5]+0.351*[#   8]+0.099*[#   6]+0.099*[#   7]+0.099*[#   9]
          
    |psi|^2 = 0.997
==== e(  10) =    21.55564 eV ==== 
     psi = 0.351*[#   5]+0.351*[#   8]+0.099*[#   6]+0.099*[#   7]+0.099*[#   9]
          
    |psi|^2 = 0.997
==== e(  11) =    35.37874 eV ==== 
     psi = 0.003*[#  10]+0.003*[#   6]+0.003*[#   7]+0.003*[#   9]
    |psi|^2 = 0.010
==== e(  12) =    38.15753 eV ==== 
     psi = 0.002*[#   6]+0.002*[#   7]+0.002*[#   9]+0.002*[#  10]
    |psi|^2 = 0.007
==== e(  13) =    44.33899 eV ==== 

    |psi|^2 = 0.001

 k =  -0.3750000000  0.3750000000 -0.3750000000
==== e(   1) =   -70.28243 eV ==== 
     psi = 0.992*[#   1]+0.002*[#   6]+0.002*[#   7]+0.002*[#   9]
    |psi|^2 = 1.000
==== e(   2) =   -27.24794 eV ==== 
     psi = 0.329*[#   2]+0.329*[#   3]+0.329*[#   4]+0.011*[#  10]
    |psi|^2 = 1.000
==== e(   3) =   -26.86865 eV ==== 
     psi = 0.333*[#   2]+0.333*[#   3]+0.333*[#   4]
    |psi|^2 = 1.000
==== e(   4) =   -26.86865 eV ==== 
     psi = 0.333*[#   2]+0.333*[#   3]+0.333*[#   4]
    |psi|^2 = 1.000
==== e(   5) =    15.34082 eV ==== 
     psi = 0.408*[#  10]+0.194*[#   6]+0.194*[#   7]+0.194*[#   9]+0.006*[#   1]
          
    |psi|^2 = 0.998
==== e(   6) =    19.23059 eV ==== 
     psi = 0.270*[#   5]+0.270*[#   8]+0.153*[#   6]+0.153*[#   7]+0.153*[#   9]
          
    |psi|^2 = 0.999
==== e(   7) =    19.23059 eV ==== 
     psi = 0.270*[#   5]+0.270*[#   8]+0.153*[#   6]+0.153*[#   7]+0.153*[#   9]
          
    |psi|^2 = 0.999
==== e(   8) =    20.12009 eV ==== 
     psi = 0.464*[#  10]+0.116*[#   6]+0.116*[#   7]+0.116*[#   9]+0.003*[#   2]
          +0.003*[#   3]+0.003*[#   4]+0.002*[#   1]
    |psi|^2 = 0.823
==== e(   9) =    22.55625 eV ==== 
     psi = 0.229*[#   5]+0.229*[#   8]+0.180*[#   6]+0.180*[#   7]+0.180*[#   9]
          
    |psi|^2 = 0.998
==== e(  10) =    22.55625 eV ==== 
     psi = 0.229*[#   5]+0.229*[#   8]+0.180*[#   6]+0.180*[#   7]+0.180*[#   9]
          
    |psi|^2 = 0.998
==== e(  11) =    31.26896 eV ==== 
     psi = 0.111*[#  10]+0.019*[#   6]+0.019*[#   7]+0.019*[#   9]
    |psi|^2 = 0.171
==== e(  12) =    36.62306 eV ==== 
     psi = 0.004*[#  10]
    |psi|^2 = 0.007
==== e(  13) =    42.11394 eV ==== 

    |psi|^2 = 0.002

 k =   0.5000000000 -0.5000000000  0.5000000000
==== e(   1) =   -70.27684 eV ==== 
     psi = 0.986*[#   1]+0.004*[#   6]+0.004*[#   7]+0.004*[#   9]+0.003*[#  10]
          
    |psi|^2 = 1.000
==== e(   2) =   -27.32180 eV ==== 
     psi = 0.333*[#   2]+0.333*[#   3]+0.333*[#   4]
    |psi|^2 = 1.000
==== e(   3) =   -26.87942 eV ==== 
     psi = 0.333*[#   2]+0.333*[#   3]+0.333*[#   4]
    |psi|^2 = 1.000
==== e(   4) =   -26.87942 eV ==== 
     psi = 0.333*[#   2]+0.333*[#   3]+0.333*[#   4]
    |psi|^2 = 1.000
==== e(   5) =    15.41952 eV ==== 
     psi = 0.255*[#   6]+0.255*[#   7]+0.255*[#   9]+0.229*[#  10]+0.005*[#   1]
          
    |psi|^2 = 1.000
==== e(   6) =    19.06767 eV ==== 
     psi = 0.297*[#   5]+0.297*[#   8]+0.135*[#   6]+0.135*[#   7]+0.135*[#   9]
          
    |psi|^2 = 0.999
==== e(   7) =    19.06767 eV ==== 
     psi = 0.297*[#   5]+0.297*[#   8]+0.135*[#   6]+0.135*[#   7]+0.135*[#   9]
          
    |psi|^2 = 0.999
==== e(   8) =    21.92026 eV ==== 

    |psi|^2 = 0.000
==== e(   9) =    23.12411 eV ==== 
     psi = 0.203*[#   5]+0.203*[#   8]+0.198*[#   6]+0.198*[#   7]+0.198*[#   9]
          
    |psi|^2 = 1.000
==== e(  10) =    23.12411 eV ==== 
     psi = 0.203*[#   5]+0.203*[#   8]+0.198*[#   6]+0.198*[#   7]+0.198*[#   9]
          
    |psi|^2 = 1.000
==== e(  11) =    28.57157 eV ==== 
     psi = 0.766*[#  10]+0.074*[#   6]+0.074*[#   7]+0.074*[#   9]+0.009*[#   1]
          
    |psi|^2 = 0.997
==== e(  12) =    35.90422 eV ==== 

    |psi|^2 = 0.000
==== e(  13) =    40.67872 eV ==== 

    |psi|^2 = 0.000

 k =   0.0000000000  0.2500000000  0.0000000000
==== e(   1) =   -70.30720 eV ==== 
     psi = 0.963*[#   1]+0.037*[#  10]
    |psi|^2 = 1.000
==== e(   2) =   -26.87976 eV ==== 
     psi = 0.331*[#   2]+0.331*[#   3]+0.331*[#   4]+0.007*[#  10]
    |psi|^2 = 1.000
==== e(   3) =   -26.83353 eV ==== 
     psi = 0.333*[#   2]+0.333*[#   3]+0.333*[#   4]
    |psi|^2 = 1.000
==== e(   4) =   -26.83353 eV ==== 
     psi = 0.333*[#   2]+0.333*[#   3]+0.333*[#   4]
    |psi|^2 = 1.000
==== e(   5) =    13.24745 eV ==== 
     psi = 0.949*[#  10]+0.037*[#   1]+0.003*[#   5]+0.003*[#   8]+0.002*[#   2]
          +0.002*[#   3]+0.002*[#   4]
    |psi|^2 = 0.999
==== e(   6) =    18.59529 eV ==== 
     psi = 0.333*[#   6]+0.333*[#   7]+0.333*[#   9]
    |psi|^2 = 0.998
==== e(   7) =    19.57496 eV ==== 
     psi = 0.332*[#   6]+0.332*[#   7]+0.332*[#   9]
    |psi|^2 = 0.998
==== e(   8) =    19.57496 eV ==== 
     psi = 0.332*[#   6]+0.332*[#   7]+0.332*[#   9]
    |psi|^2 = 0.998
==== e(   9) =    20.78310 eV ==== 
     psi = 0.496*[#   5]+0.496*[#   8]+0.006*[#  10]
    |psi|^2 = 0.998
==== e(  10) =    21.61435 eV ==== 
     psi = 0.500*[#   5]+0.500*[#   8]
    |psi|^2 = 1.000
==== e(  11) =    37.57397 eV ==== 

    |psi|^2 = 0.002
==== e(  12) =    39.82900 eV ==== 

    |psi|^2 = 0.002
==== e(  13) =    41.25439 eV ==== 

    |psi|^2 = 0.001

 k =  -0.1250000000  0.3750000000 -0.1250000000
==== e(   1) =   -70.29651 eV ==== 
     psi = 0.981*[#   1]+0.018*[#  10]
    |psi|^2 = 1.000
==== e(   2) =   -27.01673 eV ==== 
     psi = 0.328*[#   2]+0.328*[#   3]+0.328*[#   4]+0.014*[#  10]
    |psi|^2 = 1.000
==== e(   3) =   -26.86462 eV ==== 
     psi = 0.333*[#   2]+0.333*[#   3]+0.333*[#   4]
    |psi|^2 = 1.000
==== e(   4) =   -26.85654 eV ==== 
     psi = 0.333*[#   2]+0.333*[#   3]+0.333*[#   4]
    |psi|^2 = 1.000
==== e(   5) =    14.46001 eV ==== 
     psi = 0.900*[#  10]+0.019*[#   1]+0.014*[#   5]+0.014*[#   8]+0.013*[#   6]
          +0.013*[#   7]+0.013*[#   9]+0.004*[#   2]+0.004*[#   3]+0.004*[#   4]
          
    |psi|^2 = 0.999
==== e(   6) =    18.15579 eV ==== 
     psi = 0.326*[#   6]+0.326*[#   7]+0.326*[#   9]+0.015*[#  10]
    |psi|^2 = 0.995
==== e(   7) =    19.63946 eV ==== 
     psi = 0.228*[#   5]+0.228*[#   8]+0.180*[#   6]+0.180*[#   7]+0.180*[#   9]
          
    |psi|^2 = 0.996
==== e(   8) =    19.94412 eV ==== 
     psi = 0.283*[#   6]+0.283*[#   7]+0.283*[#   9]+0.073*[#   5]+0.073*[#   8]
          
    |psi|^2 = 0.997
==== e(   9) =    20.88120 eV ==== 
     psi = 0.255*[#   5]+0.255*[#   8]+0.144*[#   6]+0.144*[#   7]+0.144*[#   9]
          +0.050*[#  10]
    |psi|^2 = 0.994
==== e(  10) =    21.94775 eV ==== 
     psi = 0.426*[#   5]+0.426*[#   8]+0.049*[#   6]+0.049*[#   7]+0.049*[#   9]
          
    |psi|^2 = 0.999
==== e(  11) =    37.10117 eV ==== 
     psi = 0.001*[#   6]+0.001*[#   7]+0.001*[#   9]
    |psi|^2 = 0.005
==== e(  12) =    38.93878 eV ==== 
     psi = 0.001*[#   6]+0.001*[#   7]+0.001*[#   9]
    |psi|^2 = 0.004
==== e(  13) =    41.32683 eV ==== 

    |psi|^2 = 0.003

 k =  -0.2500000000  0.5000000000 -0.2500000000
==== e(   1) =   -70.28313 eV ==== 
     psi = 0.994*[#   1]+0.001*[#   6]+0.001*[#   7]+0.001*[#   9]+0.001*[#  10]
          
    |psi|^2 = 1.000
==== e(   2) =   -27.18893 eV ==== 
     psi = 0.328*[#   2]+0.328*[#   3]+0.328*[#   4]+0.013*[#  10]
    |psi|^2 = 1.000
==== e(   3) =   -26.89211 eV ==== 
     psi = 0.333*[#   2]+0.333*[#   3]+0.333*[#   4]
    |psi|^2 = 1.000
==== e(   4) =   -26.89088 eV ==== 
     psi = 0.333*[#   2]+0.333*[#   3]+0.333*[#   4]
    |psi|^2 = 1.000
==== e(   5) =    15.67232 eV ==== 
     psi = 0.532*[#  10]+0.138*[#   6]+0.138*[#   7]+0.138*[#   9]+0.020*[#   5]
          +0.020*[#   8]+0.005*[#   1]+0.002*[#   2]+0.002*[#   3]+0.002*[#   4]
          
    |psi|^2 = 0.997
==== e(   6) =    18.59800 eV ==== 
     psi = 0.202*[#  10]+0.201*[#   6]+0.201*[#   7]+0.201*[#   9]+0.075*[#   5]
          +0.075*[#   8]+0.002*[#   2]+0.002*[#   3]+0.002*[#   4]
    |psi|^2 = 0.961
==== e(   7) =    19.04123 eV ==== 
     psi = 0.272*[#   5]+0.272*[#   8]+0.146*[#   6]+0.146*[#   7]+0.146*[#   9]
          +0.016*[#  10]
    |psi|^2 = 0.997
==== e(   8) =    19.79614 eV ==== 
     psi = 0.229*[#   5]+0.229*[#   8]+0.179*[#   6]+0.179*[#   7]+0.179*[#   9]
          
    |psi|^2 = 0.997
==== e(   9) =    22.50770 eV ==== 
     psi = 0.188*[#  10]+0.169*[#   6]+0.169*[#   7]+0.169*[#   9]+0.131*[#   5]
          +0.131*[#   8]
    |psi|^2 = 0.959
==== e(  10) =    22.76768 eV ==== 
     psi = 0.270*[#   5]+0.270*[#   8]+0.153*[#   6]+0.153*[#   7]+0.153*[#   9]
          
    |psi|^2 = 0.998
==== e(  11) =    32.83682 eV ==== 
     psi = 0.041*[#  10]+0.010*[#   6]+0.010*[#   7]+0.010*[#   9]
    |psi|^2 = 0.072
==== e(  12) =    37.81650 eV ==== 
     psi = 0.004*[#  10]
    |psi|^2 = 0.007
==== e(  13) =    40.44303 eV ==== 
     psi = 0.001*[#   6]+0.001*[#   7]+0.001*[#   9]
    |psi|^2 = 0.003

 k =   0.6250000000 -0.3750000000  0.6250000000
==== e(   1) =   -70.27505 eV ==== 
     psi = 0.988*[#   1]+0.003*[#  10]+0.003*[#   6]+0.003*[#   7]+0.003*[#   9]
          
    |psi|^2 = 1.000
==== e(   2) =   -27.29067 eV ==== 
     psi = 0.332*[#   2]+0.332*[#   3]+0.332*[#   4]+0.002*[#  10]
    |psi|^2 = 1.000
==== e(   3) =   -26.92560 eV ==== 
     psi = 0.332*[#   2]+0.332*[#   3]+0.332*[#   4]
    |psi|^2 = 1.000
==== e(   4) =   -26.89711 eV ==== 
     psi = 0.333*[#   2]+0.333*[#   3]+0.333*[#   4]
    |psi|^2 = 1.000
==== e(   5) =    15.89342 eV ==== 
     psi = 0.253*[#   6]+0.253*[#   7]+0.253*[#   9]+0.226*[#  10]+0.004*[#   5]
          +0.004*[#   8]+0.003*[#   1]
    |psi|^2 = 0.999
==== e(   6) =    18.66659 eV ==== 
     psi = 0.361*[#   5]+0.361*[#   8]+0.088*[#   6]+0.088*[#   7]+0.088*[#   9]
          
    |psi|^2 = 0.986
==== e(   7) =    19.51876 eV ==== 
     psi = 0.301*[#   5]+0.301*[#   8]+0.132*[#   6]+0.132*[#   7]+0.132*[#   9]
          
    |psi|^2 = 0.998
==== e(   8) =    20.18326 eV ==== 
     psi = 0.189*[#   6]+0.189*[#   7]+0.189*[#   9]+0.073*[#  10]+0.062*[#   5]
          +0.062*[#   8]
    |psi|^2 = 0.765
==== e(   9) =    23.16142 eV ==== 
     psi = 0.201*[#   6]+0.201*[#   7]+0.201*[#   9]+0.198*[#   5]+0.198*[#   8]
          
    |psi|^2 = 1.000
==== e(  10) =    24.71751 eV ==== 
     psi = 0.116*[#  10]+0.078*[#   6]+0.078*[#   7]+0.078*[#   9]+0.071*[#   5]
          +0.071*[#   8]+0.002*[#   1]
    |psi|^2 = 0.495
==== e(  11) =    28.79439 eV ==== 
     psi = 0.573*[#  10]+0.054*[#   6]+0.054*[#   7]+0.054*[#   9]+0.007*[#   1]
          
    |psi|^2 = 0.742
==== e(  12) =    36.78677 eV ==== 
     psi = 0.001*[#  10]
    |psi|^2 = 0.003
==== e(  13) =    39.93662 eV ==== 

    |psi|^2 = 0.002

 k =   0.5000000000 -0.2500000000  0.5000000000
==== e(   1) =   -70.27690 eV ==== 
     psi = 0.991*[#   1]+0.003*[#   6]+0.003*[#   7]+0.003*[#   9]+0.001*[#  10]
          
    |psi|^2 = 1.000
==== e(   2) =   -27.26639 eV ==== 
     psi = 0.331*[#   2]+0.331*[#   3]+0.331*[#   4]+0.005*[#  10]
    |psi|^2 = 1.000
==== e(   3) =   -26.93576 eV ==== 
     psi = 0.332*[#   2]+0.332*[#   3]+0.332*[#   4]
    |psi|^2 = 1.000
==== e(   4) =   -26.87963 eV ==== 
     psi = 0.333*[#   2]+0.333*[#   3]+0.333*[#   4]
    |psi|^2 = 1.000
==== e(   5) =    15.91278 eV ==== 
     psi = 0.287*[#  10]+0.235*[#   6]+0.235*[#   7]+0.235*[#   9]+0.003*[#   1]
          +0.001*[#   2]+0.001*[#   3]+0.001*[#   4]
    |psi|^2 = 0.998
==== e(   6) =    18.79331 eV ==== 
     psi = 0.314*[#   5]+0.314*[#   8]+0.121*[#   6]+0.121*[#   7]+0.121*[#   9]
          +0.002*[#  10]
    |psi|^2 = 0.992
==== e(   7) =    19.51063 eV ==== 
     psi = 0.320*[#   5]+0.320*[#   8]+0.119*[#   6]+0.119*[#   7]+0.119*[#   9]
          
    |psi|^2 = 0.998
==== e(   8) =    19.90656 eV ==== 
     psi = 0.191*[#  10]+0.158*[#   6]+0.158*[#   7]+0.158*[#   9]+0.074*[#   5]
          +0.074*[#   8]+0.002*[#   2]+0.002*[#   3]+0.002*[#   4]+0.001*[#   1]
          
    |psi|^2 = 0.819
==== e(   9) =    22.39840 eV ==== 
     psi = 0.213*[#   6]+0.213*[#   7]+0.213*[#   9]+0.179*[#   5]+0.179*[#   8]
          
    |psi|^2 = 0.997
==== e(  10) =    24.43040 eV ==== 
     psi = 0.256*[#  10]+0.120*[#   6]+0.120*[#   7]+0.120*[#   9]+0.110*[#   5]
          +0.110*[#   8]+0.003*[#   1]
    |psi|^2 = 0.837
==== e(  11) =    30.05006 eV ==== 
     psi = 0.252*[#  10]+0.029*[#   6]+0.029*[#   7]+0.029*[#   9]+0.002*[#   1]
          
    |psi|^2 = 0.342
==== e(  12) =    36.96238 eV ==== 
     psi = 0.001*[#  10]
    |psi|^2 = 0.005
==== e(  13) =    39.07009 eV ==== 

    |psi|^2 = 0.001

 k =   0.3750000000 -0.1250000000  0.3750000000
==== e(   1) =   -70.28761 eV ==== 
     psi = 0.992*[#   1]+0.005*[#  10]+0.001*[#   6]+0.001*[#   7]+0.001*[#   9]
          
    |psi|^2 = 1.000
==== e(   2) =   -27.13258 eV ==== 
     psi = 0.328*[#   2]+0.328*[#   3]+0.328*[#   4]+0.015*[#  10]
    |psi|^2 = 1.000
==== e(   3) =   -26.91375 eV ==== 
     psi = 0.332*[#   2]+0.332*[#   3]+0.332*[#   4]
    |psi|^2 = 1.000
==== e(   4) =   -26.84846 eV ==== 
     psi = 0.333*[#   2]+0.333*[#   3]+0.333*[#   4]
    |psi|^2 = 1.000
==== e(   5) =    15.42224 eV ==== 
     psi = 0.722*[#  10]+0.082*[#   6]+0.082*[#   7]+0.082*[#   9]+0.008*[#   1]
          +0.005*[#   5]+0.005*[#   8]+0.004*[#   2]+0.004*[#   3]+0.004*[#   4]
          
    |psi|^2 = 0.997
==== e(   6) =    18.43452 eV ==== 
     psi = 0.289*[#   6]+0.289*[#   7]+0.289*[#   9]+0.106*[#  10]+0.002*[#   2]
          +0.002*[#   3]+0.002*[#   4]
    |psi|^2 = 0.981
==== e(   7) =    19.27397 eV ==== 
     psi = 0.266*[#   5]+0.266*[#   8]+0.143*[#   6]+0.143*[#   7]+0.143*[#   9]
          +0.026*[#  10]
    |psi|^2 = 0.990
==== e(   8) =    19.82151 eV ==== 
     psi = 0.259*[#   5]+0.259*[#   8]+0.160*[#   6]+0.160*[#   7]+0.160*[#   9]
          
    |psi|^2 = 0.998
==== e(   9) =    21.11503 eV ==== 
     psi = 0.239*[#   5]+0.239*[#   8]+0.173*[#   6]+0.173*[#   7]+0.173*[#   9]
          
    |psi|^2 = 0.997
==== e(  10) =    22.98863 eV ==== 
     psi = 0.227*[#   5]+0.227*[#   8]+0.142*[#   6]+0.142*[#   7]+0.142*[#   9]
          +0.108*[#  10]
    |psi|^2 = 0.989
==== e(  11) =    34.34164 eV ==== 
     psi = 0.013*[#  10]+0.005*[#   6]+0.005*[#   7]+0.005*[#   9]
    |psi|^2 = 0.029
==== e(  12) =    38.15567 eV ==== 
     psi = 0.002*[#   6]+0.002*[#   7]+0.002*[#   9]+0.001*[#  10]
    |psi|^2 = 0.007
==== e(  13) =    40.37742 eV ==== 
     psi = 0.001*[#  10]
    |psi|^2 = 0.004

 k =   0.2500000000  0.0000000000  0.2500000000
==== e(   1) =   -70.30089 eV ==== 
     psi = 0.974*[#   1]+0.025*[#  10]
    |psi|^2 = 1.000
==== e(   2) =   -26.97274 eV ==== 
     psi = 0.329*[#   2]+0.329*[#   3]+0.329*[#   4]+0.012*[#  10]
    |psi|^2 = 1.000
==== e(   3) =   -26.86436 eV ==== 
     psi = 0.333*[#   2]+0.333*[#   3]+0.333*[#   4]
    |psi|^2 = 1.000
==== e(   4) =   -26.82194 eV ==== 
     psi = 0.333*[#   2]+0.333*[#   3]+0.333*[#   4]
    |psi|^2 = 1.000
==== e(   5) =    13.96763 eV ==== 
     psi = 0.932*[#  10]+0.026*[#   1]+0.009*[#   6]+0.009*[#   7]+0.009*[#   9]
          +0.004*[#   2]+0.004*[#   3]+0.004*[#   4]+0.002*[#   5]+0.002*[#   8]
          
    |psi|^2 = 0.999
==== e(   6) =    18.46820 eV ==== 
     psi = 0.331*[#   6]+0.331*[#   7]+0.331*[#   9]
    |psi|^2 = 0.995
==== e(   7) =    19.57571 eV ==== 
     psi = 0.258*[#   6]+0.258*[#   7]+0.258*[#   9]+0.104*[#   5]+0.104*[#   8]
          +0.013*[#  10]
    |psi|^2 = 0.996
==== e(   8) =    19.73416 eV ==== 
     psi = 0.333*[#   6]+0.333*[#   7]+0.333*[#   9]
    |psi|^2 = 0.999
==== e(   9) =    20.73938 eV ==== 
     psi = 0.499*[#   5]+0.499*[#   8]
    |psi|^2 = 0.998
==== e(  10) =    21.80882 eV ==== 
     psi = 0.393*[#   5]+0.393*[#   8]+0.065*[#   6]+0.065*[#   7]+0.065*[#   9]
          +0.017*[#  10]
    |psi|^2 = 0.998
==== e(  11) =    37.52306 eV ==== 

    |psi|^2 = 0.003
==== e(  12) =    38.36256 eV ==== 
     psi = 0.001*[#   6]+0.001*[#   7]+0.001*[#   9]
    |psi|^2 = 0.004
==== e(  13) =    41.20121 eV ==== 

    |psi|^2 = 0.001

 k =   0.0000000000  0.5000000000  0.0000000000
==== e(   1) =   -70.28955 eV ==== 
     psi = 0.990*[#   1]+0.008*[#  10]
    |psi|^2 = 1.000
==== e(   2) =   -27.05654 eV ==== 
     psi = 0.327*[#   2]+0.327*[#   3]+0.327*[#   4]+0.018*[#  10]
    |psi|^2 = 1.000
==== e(   3) =   -26.90243 eV ==== 
     psi = 0.333*[#   2]+0.333*[#   3]+0.333*[#   4]
    |psi|^2 = 1.000
==== e(   4) =   -26.90243 eV ==== 
     psi = 0.333*[#   2]+0.333*[#   3]+0.333*[#   4]
    |psi|^2 = 1.000
==== e(   5) =    15.17655 eV ==== 
     psi = 0.806*[#  10]+0.084*[#   5]+0.084*[#   8]+0.010*[#   1]+0.005*[#   2]
          +0.005*[#   3]+0.005*[#   4]
    |psi|^2 = 0.998
==== e(   6) =    17.48236 eV ==== 
     psi = 0.332*[#   6]+0.332*[#   7]+0.332*[#   9]
    |psi|^2 = 0.997
==== e(   7) =    19.85404 eV ==== 
     psi = 0.412*[#   5]+0.412*[#   8]+0.163*[#  10]+0.001*[#   2]+0.001*[#   3]
          +0.001*[#   4]
    |psi|^2 = 0.991
==== e(   8) =    20.82408 eV ==== 
     psi = 0.331*[#   6]+0.331*[#   7]+0.331*[#   9]
    |psi|^2 = 0.993
==== e(   9) =    20.82408 eV ==== 
     psi = 0.331*[#   6]+0.331*[#   7]+0.331*[#   9]
    |psi|^2 = 0.993
==== e(  10) =    22.18795 eV ==== 
     psi = 0.500*[#   5]+0.500*[#   8]
    |psi|^2 = 0.999
==== e(  11) =    39.12380 eV ==== 
     psi = 0.002*[#   6]+0.002*[#   7]+0.002*[#   9]
    |psi|^2 = 0.007
==== e(  12) =    39.12381 eV ==== 
     psi = 0.002*[#   6]+0.002*[#   7]+0.002*[#   9]
    |psi|^2 = 0.007
==== e(  13) =    39.37100 eV ==== 
     psi = 0.002*[#   5]+0.002*[#   8]+0.001*[#  10]
    |psi|^2 = 0.005

 k =  -0.1250000000  0.6250000000 -0.1250000000
==== e(   1) =   -70.27879 eV ==== 
     psi = 0.996*[#   1]+0.001*[#   5]+0.001*[#   8]
    |psi|^2 = 1.000
==== e(   2) =   -27.16674 eV ==== 
     psi = 0.328*[#   2]+0.328*[#   3]+0.328*[#   4]+0.015*[#  10]
    |psi|^2 = 1.000
==== e(   3) =   -26.94812 eV ==== 
     psi = 0.332*[#   2]+0.332*[#   3]+0.332*[#   4]
    |psi|^2 = 1.000
==== e(   4) =   -26.93328 eV ==== 
     psi = 0.333*[#   2]+0.333*[#   3]+0.333*[#   4]
    |psi|^2 = 1.000
==== e(   5) =    16.10728 eV ==== 
     psi = 0.471*[#  10]+0.210*[#   5]+0.210*[#   8]+0.031*[#   6]+0.031*[#   7]
          +0.031*[#   9]+0.003*[#   2]+0.003*[#   3]+0.003*[#   4]+0.002*[#   1]
          
    |psi|^2 = 0.995
==== e(   6) =    17.20357 eV ==== 
     psi = 0.307*[#   6]+0.307*[#   7]+0.307*[#   9]+0.025*[#   5]+0.025*[#   8]
          +0.020*[#  10]
    |psi|^2 = 0.995
==== e(   7) =    19.46449 eV ==== 
     psi = 0.228*[#  10]+0.202*[#   5]+0.202*[#   8]+0.116*[#   6]+0.116*[#   7]
          +0.116*[#   9]+0.002*[#   2]+0.002*[#   3]+0.002*[#   4]
    |psi|^2 = 0.984
==== e(   8) =    21.08791 eV ==== 
     psi = 0.212*[#   6]+0.212*[#   7]+0.212*[#   9]+0.178*[#   5]+0.178*[#   8]
          
    |psi|^2 = 0.992
==== e(   9) =    22.62184 eV ==== 
     psi = 0.228*[#  10]+0.205*[#   6]+0.205*[#   7]+0.205*[#   9]+0.056*[#   5]
          +0.056*[#   8]+0.002*[#   1]
    |psi|^2 = 0.960
==== e(  10) =    22.86896 eV ==== 
     psi = 0.321*[#   5]+0.321*[#   8]+0.119*[#   6]+0.119*[#   7]+0.119*[#   9]
          
    |psi|^2 = 0.998
==== e(  11) =    34.62260 eV ==== 
     psi = 0.021*[#  10]+0.006*[#   6]+0.006*[#   7]+0.006*[#   9]
    |psi|^2 = 0.039
==== e(  12) =    37.62330 eV ==== 
     psi = 0.002*[#   6]+0.002*[#   7]+0.002*[#   9]
    |psi|^2 = 0.008
==== e(  13) =    38.25372 eV ==== 
     psi = 0.012*[#  10]+0.004*[#   5]+0.004*[#   8]
    |psi|^2 = 0.020

 k =   0.7500000000 -0.2500000000  0.7500000000
==== e(   1) =   -70.27071 eV ==== 
     psi = 0.989*[#   1]+0.006*[#  10]+0.001*[#   6]+0.001*[#   7]+0.001*[#   9]
          
    |psi|^2 = 1.000
==== e(   2) =   -27.23561 eV ==== 
     psi = 0.331*[#   2]+0.331*[#   3]+0.331*[#   4]+0.004*[#  10]
    |psi|^2 = 1.000
==== e(   3) =   -27.01495 eV ==== 
     psi = 0.332*[#   2]+0.332*[#   3]+0.332*[#   4]+0.001*[#   6]+0.001*[#   7]
          +0.001*[#   9]+0.001*[#  10]
    |psi|^2 = 1.000
==== e(   4) =   -26.93953 eV ==== 
     psi = 0.333*[#   2]+0.333*[#   3]+0.333*[#   4]
    |psi|^2 = 1.000
==== e(   5) =    16.52839 eV ==== 
     psi = 0.189*[#   6]+0.189*[#   7]+0.189*[#   9]+0.149*[#  10]+0.138*[#   5]
          +0.138*[#   8]
    |psi|^2 = 0.996
==== e(   6) =    17.71391 eV ==== 
     psi = 0.300*[#   5]+0.300*[#   8]+0.120*[#   6]+0.120*[#   7]+0.120*[#   9]
          +0.010*[#  10]+0.002*[#   2]+0.002*[#   3]+0.002*[#   4]
    |psi|^2 = 0.973
==== e(   7) =    19.26341 eV ==== 
     psi = 0.252*[#   6]+0.252*[#   7]+0.252*[#   9]+0.156*[#  10]+0.021*[#   5]
          +0.021*[#   8]+0.001*[#   2]+0.001*[#   3]+0.001*[#   4]
    |psi|^2 = 0.958
==== e(   8) =    20.76518 eV ==== 
     psi = 0.316*[#   5]+0.316*[#   8]+0.120*[#   6]+0.120*[#   7]+0.120*[#   9]
          
    |psi|^2 = 0.994
==== e(   9) =    23.25860 eV ==== 
     psi = 0.212*[#   6]+0.212*[#   7]+0.212*[#   9]+0.181*[#   5]+0.181*[#   8]
          
    |psi|^2 = 1.000
==== e(  10) =    25.80172 eV ==== 
     psi = 0.365*[#  10]+0.084*[#   6]+0.084*[#   7]+0.084*[#   9]+0.034*[#   5]
          +0.034*[#   8]+0.006*[#   1]
    |psi|^2 = 0.691
==== e(  11) =    29.77549 eV ==== 
     psi = 0.276*[#  10]+0.018*[#   6]+0.018*[#   7]+0.018*[#   9]+0.003*[#   1]
          +0.001*[#   5]+0.001*[#   8]
    |psi|^2 = 0.335
==== e(  12) =    36.32347 eV ==== 
     psi = 0.021*[#  10]+0.004*[#   5]+0.004*[#   8]
    |psi|^2 = 0.030
==== e(  13) =    37.57352 eV ==== 
     psi = 0.002*[#   5]+0.002*[#   8]
    |psi|^2 = 0.005

 k =   0.6250000000 -0.1250000000  0.6250000000
==== e(   1) =   -70.26994 eV ==== 
     psi = 0.988*[#   1]+0.008*[#  10]+0.001*[#   6]+0.001*[#   7]+0.001*[#   9]
          
    |psi|^2 = 1.000
==== e(   2) =   -27.22179 eV ==== 
     psi = 0.331*[#   2]+0.331*[#   3]+0.331*[#   4]+0.001*[#   5]+0.001*[#   8]
          +0.001*[#   6]+0.001*[#   7]+0.001*[#   9]
    |psi|^2 = 1.000
==== e(   3) =   -27.06550 eV ==== 
     psi = 0.331*[#   2]+0.331*[#   3]+0.331*[#   4]+0.001*[#   6]+0.001*[#   7]
          +0.001*[#   9]+0.001*[#  10]
    |psi|^2 = 1.000
==== e(   4) =   -26.91746 eV ==== 
     psi = 0.333*[#   2]+0.333*[#   3]+0.333*[#   4]
    |psi|^2 = 1.000
==== e(   5) =    16.89789 eV ==== 
     psi = 0.256*[#   6]+0.256*[#   7]+0.256*[#   9]+0.140*[#  10]+0.042*[#   5]
          +0.042*[#   8]
    |psi|^2 = 0.996
[...]
          
    |psi|^2 = 0.855
==== e(   8) =    22.36289 eV ==== 
     psi = 0.386*[#   5]+0.386*[#   8]+0.073*[#   6]+0.073*[#   7]+0.073*[#   9]
          
    |psi|^2 = 0.992
==== e(   9) =    23.39102 eV ==== 
     psi = 0.259*[#   6]+0.259*[#   7]+0.259*[#   9]+0.112*[#   5]+0.112*[#   8]
          
    |psi|^2 = 1.000
==== e(  10) =    25.54712 eV ==== 
     psi = 0.274*[#  10]+0.099*[#   6]+0.099*[#   7]+0.099*[#   9]+0.015*[#   5]
          +0.015*[#   8]+0.006*[#   1]
    |psi|^2 = 0.607
==== e(  11) =    31.09656 eV ==== 
     psi = 0.359*[#  10]+0.011*[#   5]+0.011*[#   8]+0.006*[#   1]+0.002*[#   6]
          +0.002*[#   7]+0.002*[#   9]
    |psi|^2 = 0.395
==== e(  12) =    34.11968 eV ==== 
     psi = 0.108*[#  10]+0.008*[#   5]+0.008*[#   8]+0.002*[#   1]
    |psi|^2 = 0.129
==== e(  13) =    34.75755 eV ==== 
     psi = 0.002*[#   5]+0.002*[#   8]
    |psi|^2 = 0.007

 k =   0.7500000000  0.0000000000  0.7500000000
==== e(   1) =   -70.26548 eV ==== 
     psi = 0.983*[#   1]+0.015*[#  10]
    |psi|^2 = 1.000
==== e(   2) =   -27.21126 eV ==== 
     psi = 0.332*[#   2]+0.332*[#   3]+0.332*[#   4]+0.002*[#   6]+0.002*[#   7]
          +0.002*[#   9]
    |psi|^2 = 1.000
==== e(   3) =   -27.10844 eV ==== 
     psi = 0.331*[#   2]+0.331*[#   3]+0.331*[#   4]+0.001*[#   5]+0.001*[#   8]
          
    |psi|^2 = 1.000
==== e(   4) =   -26.95959 eV ==== 
     psi = 0.333*[#   2]+0.333*[#   3]+0.333*[#   4]
    |psi|^2 = 1.000
==== e(   5) =    16.54854 eV ==== 
     psi = 0.276*[#   5]+0.276*[#   8]+0.132*[#   6]+0.132*[#   7]+0.132*[#   9]
          +0.049*[#  10]
    |psi|^2 = 0.998
==== e(   6) =    17.33991 eV ==== 
     psi = 0.204*[#   5]+0.204*[#   8]+0.189*[#   6]+0.189*[#   7]+0.189*[#   9]
          +0.002*[#   2]+0.002*[#   3]+0.002*[#   4]
    |psi|^2 = 0.980
==== e(   7) =    19.95557 eV ==== 
     psi = 0.301*[#   6]+0.301*[#   7]+0.301*[#   9]+0.002*[#   2]+0.002*[#   3]
          +0.002*[#   4]
    |psi|^2 = 0.907
==== e(   8) =    21.67806 eV ==== 
     psi = 0.495*[#   5]+0.495*[#   8]
    |psi|^2 = 0.991
==== e(   9) =    22.88965 eV ==== 
     psi = 0.333*[#   6]+0.333*[#   7]+0.333*[#   9]
    |psi|^2 = 0.998
==== e(  10) =    28.10822 eV ==== 
     psi = 0.734*[#  10]+0.013*[#   1]+0.010*[#   6]+0.010*[#   7]+0.010*[#   9]
          +0.004*[#   5]+0.004*[#   8]
    |psi|^2 = 0.786
==== e(  11) =    29.27851 eV ==== 
     psi = 0.031*[#   6]+0.031*[#   7]+0.031*[#   9]
    |psi|^2 = 0.093
==== e(  12) =    32.62843 eV ==== 
     psi = 0.174*[#  10]+0.013*[#   5]+0.013*[#   8]+0.003*[#   1]
    |psi|^2 = 0.204
==== e(  13) =    36.71181 eV ==== 
     psi = 0.005*[#   5]+0.005*[#   8]
    |psi|^2 = 0.009

 k =   0.0000000000 -1.0000000000  0.0000000000
==== e(   1) =   -70.26453 eV ==== 
     psi = 0.978*[#   1]+0.017*[#  10]+0.003*[#   5]+0.003*[#   8]
    |psi|^2 = 1.000
==== e(   2) =   -27.29453 eV ==== 
     psi = 0.333*[#   2]+0.333*[#   3]+0.333*[#   4]
    |psi|^2 = 1.000
==== e(   3) =   -26.99911 eV ==== 
     psi = 0.333*[#   2]+0.333*[#   3]+0.333*[#   4]
    |psi|^2 = 1.000
==== e(   4) =   -26.99911 eV ==== 
     psi = 0.333*[#   2]+0.333*[#   3]+0.333*[#   4]
    |psi|^2 = 1.000
==== e(   5) =    15.71254 eV ==== 
     psi = 0.461*[#   5]+0.461*[#   8]+0.077*[#  10]+0.001*[#   1]
    |psi|^2 = 1.000
==== e(   6) =    16.21093 eV ==== 
     psi = 0.333*[#   6]+0.333*[#   7]+0.333*[#   9]
    |psi|^2 = 0.999
==== e(   7) =    23.09929 eV ==== 
     psi = 0.500*[#   5]+0.500*[#   8]
    |psi|^2 = 1.000
==== e(   8) =    23.59270 eV ==== 
     psi = 0.333*[#   6]+0.333*[#   7]+0.333*[#   9]
    |psi|^2 = 1.000
==== e(   9) =    23.59270 eV ==== 
     psi = 0.333*[#   6]+0.333*[#   7]+0.333*[#   9]
    |psi|^2 = 1.000
==== e(  10) =    24.09997 eV ==== 

    |psi|^2 = 0.000
==== e(  11) =    31.43911 eV ==== 
     psi = 0.887*[#  10]+0.036*[#   5]+0.036*[#   8]+0.021*[#   1]
    |psi|^2 = 0.981
==== e(  12) =    33.39241 eV ==== 

    |psi|^2 = 0.000
==== e(  13) =    33.39241 eV ==== 

    |psi|^2 = 0.000

 k =  -0.2500000000  0.5000000000  0.0000000000
==== e(   1) =   -70.28584 eV ==== 
     psi = 0.994*[#   1]+0.004*[#  10]
    |psi|^2 = 1.000
==== e(   2) =   -27.11248 eV ==== 
     psi = 0.328*[#   2]+0.328*[#   3]+0.328*[#   4]+0.016*[#  10]
    |psi|^2 = 1.000
==== e(   3) =   -26.93878 eV ==== 
     psi = 0.332*[#   2]+0.332*[#   3]+0.332*[#   4]
    |psi|^2 = 1.000
==== e(   4) =   -26.87553 eV ==== 
     psi = 0.333*[#   2]+0.333*[#   3]+0.333*[#   4]
    |psi|^2 = 1.000
==== e(   5) =    15.74184 eV ==== 
     psi = 0.773*[#  10]+0.056*[#   5]+0.056*[#   8]+0.031*[#   6]+0.031*[#   7]
          +0.031*[#   9]+0.006*[#   1]+0.005*[#   2]+0.005*[#   3]+0.005*[#   4]
          
    |psi|^2 = 0.996
==== e(   6) =    17.74487 eV ==== 
     psi = 0.331*[#   6]+0.331*[#   7]+0.331*[#   9]
    |psi|^2 = 0.994
==== e(   7) =    19.09006 eV ==== 
     psi = 0.317*[#   5]+0.317*[#   8]+0.117*[#   6]+0.117*[#   7]+0.117*[#   9]
          +0.008*[#  10]
    |psi|^2 = 0.994
==== e(   8) =    20.83746 eV ==== 
     psi = 0.331*[#   6]+0.331*[#   7]+0.331*[#   9]
    |psi|^2 = 0.994
==== e(   9) =    20.89791 eV ==== 
     psi = 0.388*[#   5]+0.388*[#   8]+0.077*[#  10]+0.045*[#   6]+0.045*[#   7]
          +0.045*[#   9]
    |psi|^2 = 0.990
==== e(  10) =    23.04094 eV ==== 
     psi = 0.235*[#   5]+0.235*[#   8]+0.137*[#   6]+0.137*[#   7]+0.137*[#   9]
          +0.109*[#  10]
    |psi|^2 = 0.991
==== e(  11) =    35.63323 eV ==== 
     psi = 0.007*[#  10]+0.003*[#   6]+0.003*[#   7]+0.003*[#   9]
    |psi|^2 = 0.018
==== e(  12) =    37.91660 eV ==== 
     psi = 0.003*[#   6]+0.003*[#   7]+0.003*[#   9]
    |psi|^2 = 0.009
==== e(  13) =    39.77213 eV ==== 
     psi = 0.004*[#  10]+0.002*[#   5]+0.002*[#   8]
    |psi|^2 = 0.008

 k =   0.6250000000 -0.3750000000  0.8750000000
==== e(   1) =   -70.27511 eV ==== 
     psi = 0.994*[#   1]+0.001*[#   6]+0.001*[#   7]+0.001*[#   9]+0.001*[#  10]
          
    |psi|^2 = 1.000
==== e(   2) =   -27.21068 eV ==== 
     psi = 0.330*[#   2]+0.330*[#   3]+0.330*[#   4]+0.008*[#  10]
    |psi|^2 = 1.000
==== e(   3) =   -26.99676 eV ==== 
     psi = 0.332*[#   2]+0.332*[#   3]+0.332*[#   4]+0.001*[#   6]+0.001*[#   7]
          +0.001*[#   9]
    |psi|^2 = 1.000
==== e(   4) =   -26.90662 eV ==== 
     psi = 0.333*[#   2]+0.333*[#   3]+0.333*[#   4]
    |psi|^2 = 1.000
==== e(   5) =    16.66171 eV ==== 
     psi = 0.325*[#  10]+0.187*[#   6]+0.187*[#   7]+0.187*[#   9]+0.050*[#   5]
          +0.050*[#   8]+0.002*[#   2]+0.002*[#   3]+0.002*[#   4]
    |psi|^2 = 0.993
==== e(   6) =    18.20434 eV ==== 
     psi = 0.296*[#   5]+0.296*[#   8]+0.105*[#   6]+0.105*[#   7]+0.105*[#   9]
          +0.056*[#  10]+0.002*[#   2]+0.002*[#   3]+0.002*[#   4]
    |psi|^2 = 0.968
==== e(   7) =    18.51472 eV ==== 
     psi = 0.239*[#   6]+0.239*[#   7]+0.239*[#   9]+0.094*[#   5]+0.094*[#   8]
          +0.082*[#  10]
    |psi|^2 = 0.988
==== e(   8) =    20.51720 eV ==== 
     psi = 0.323*[#   5]+0.323*[#   8]+0.106*[#   6]+0.106*[#   7]+0.106*[#   9]
          +0.023*[#  10]
    |psi|^2 = 0.988
==== e(   9) =    22.27220 eV ==== 
     psi = 0.224*[#   6]+0.224*[#   7]+0.224*[#   9]+0.146*[#   5]+0.146*[#   8]
          +0.014*[#  10]
    |psi|^2 = 0.981
==== e(  10) =    24.82742 eV ==== 
     psi = 0.380*[#  10]+0.122*[#   6]+0.122*[#   7]+0.122*[#   9]+0.083*[#   5]
          +0.083*[#   8]+0.004*[#   1]
    |psi|^2 = 0.918
==== e(  11) =    31.63600 eV ==== 
     psi = 0.099*[#  10]+0.010*[#   6]+0.010*[#   7]+0.010*[#   9]+0.002*[#   5]
          +0.002*[#   8]
    |psi|^2 = 0.136
==== e(  12) =    36.56136 eV ==== 
     psi = 0.002*[#   6]+0.002*[#   7]+0.002*[#   9]
    |psi|^2 = 0.009
==== e(  13) =    38.15553 eV ==== 
     psi = 0.004*[#  10]+0.002*[#   5]+0.002*[#   8]
    |psi|^2 = 0.008

 k =   0.5000000000 -0.2500000000  0.7500000000
==== e(   1) =   -70.27067 eV ==== 
     psi = 0.987*[#   1]+0.008*[#  10]+0.002*[#   6]+0.002*[#   7]+0.002*[#   9]
          
    |psi|^2 = 1.000
==== e(   2) =   -27.25296 eV ==== 
     psi = 0.332*[#   2]+0.332*[#   3]+0.332*[#   4]+0.001*[#   5]+0.001*[#   8]
          
    |psi|^2 = 1.000
==== e(   3) =   -27.01492 eV ==== 
     psi = 0.332*[#   2]+0.332*[#   3]+0.332*[#   4]+0.002*[#  10]+0.001*[#   6]
          +0.001*[#   7]+0.001*[#   9]
    |psi|^2 = 1.000
==== e(   4) =   -26.92332 eV ==== 
     psi = 0.333*[#   2]+0.333*[#   3]+0.333*[#   4]
    |psi|^2 = 1.000
==== e(   5) =    16.72211 eV ==== 
     psi = 0.272*[#   6]+0.272*[#   7]+0.272*[#   9]+0.164*[#  10]+0.005*[#   5]
          +0.005*[#   8]+0.001*[#   2]+0.001*[#   3]+0.001*[#   4]
    |psi|^2 = 0.996
==== e(   6) =    18.03165 eV ==== 
     psi = 0.423*[#   5]+0.423*[#   8]+0.045*[#   6]+0.045*[#   7]+0.045*[#   9]
          
    |psi|^2 = 0.982
==== e(   7) =    19.34477 eV ==== 
     psi = 0.261*[#   6]+0.261*[#   7]+0.261*[#   9]+0.048*[#   5]+0.048*[#   8]
          +0.001*[#   2]+0.001*[#   3]+0.001*[#   4]
    |psi|^2 = 0.883
==== e(   8) =    20.25520 eV ==== 
     psi = 0.358*[#   5]+0.358*[#   8]+0.092*[#   6]+0.092*[#   7]+0.092*[#   9]
          
    |psi|^2 = 0.993
==== e(   9) =    22.86648 eV ==== 
     psi = 0.243*[#   6]+0.243*[#   7]+0.243*[#   9]+0.129*[#   5]+0.129*[#   8]
          +0.012*[#  10]
    |psi|^2 = 0.998
==== e(  10) =    27.05500 eV ==== 
     psi = 0.026*[#   5]+0.026*[#   6]+0.026*[#   7]+0.026*[#   8]+0.026*[#   9]
          
    |psi|^2 = 0.128
==== e(  11) =    28.14563 eV ==== 
     psi = 0.795*[#  10]+0.055*[#   6]+0.055*[#   7]+0.055*[#   9]+0.012*[#   1]
          +0.005*[#   5]+0.005*[#   8]
    |psi|^2 = 0.982
==== e(  12) =    36.86766 eV ==== 
     psi = 0.005*[#  10]+0.003*[#   5]+0.003*[#   8]
    |psi|^2 = 0.012
==== e(  13) =    37.12534 eV ==== 
     psi = 0.002*[#   5]+0.002*[#   8]
    |psi|^2 = 0.005

 k =   0.7500000000 -0.2500000000  1.0000000000
==== e(   1) =   -70.27068 eV ==== 
     psi = 0.991*[#   1]+0.005*[#  10]+0.001*[#   5]+0.001*[#   8]
    |psi|^2 = 1.000
==== e(   2) =   -27.21646 eV ==== 
     psi = 0.330*[#   2]+0.330*[#   3]+0.330*[#   4]+0.008*[#  10]
    |psi|^2 = 1.000
==== e(   3) =   -27.01253 eV ==== 
     psi = 0.332*[#   2]+0.332*[#   3]+0.332*[#   4]
    |psi|^2 = 1.000
==== e(   4) =   -26.95974 eV ==== 
     psi = 0.333*[#   2]+0.333*[#   3]+0.333*[#   4]
    |psi|^2 = 1.000
==== e(   5) =    16.56357 eV ==== 
     psi = 0.392*[#   5]+0.392*[#   8]+0.190*[#  10]+0.005*[#   6]+0.005*[#   7]
          +0.005*[#   9]+0.001*[#   2]+0.001*[#   3]+0.001*[#   4]
    |psi|^2 = 0.992
==== e(   6) =    17.01885 eV ==== 
     psi = 0.331*[#   6]+0.331*[#   7]+0.331*[#   9]
    |psi|^2 = 0.995
==== e(   7) =    19.47747 eV ==== 
     psi = 0.205*[#  10]+0.199*[#   6]+0.199*[#   7]+0.199*[#   9]+0.080*[#   5]
          +0.080*[#   8]+0.002*[#   2]+0.002*[#   3]+0.002*[#   4]
    |psi|^2 = 0.967
==== e(   8) =    22.04081 eV ==== 
     psi = 0.458*[#   5]+0.458*[#   8]+0.044*[#  10]
    |psi|^2 = 0.964
==== e(   9) =    22.55195 eV ==== 
     psi = 0.330*[#   6]+0.330*[#   7]+0.330*[#   9]
    |psi|^2 = 0.990
==== e(  10) =    24.94969 eV ==== 
     psi = 0.397*[#  10]+0.125*[#   6]+0.125*[#   7]+0.125*[#   9]+0.056*[#   5]
          +0.056*[#   8]+0.006*[#   1]
    |psi|^2 = 0.889
==== e(  11) =    32.65021 eV ==== 
     psi = 0.118*[#  10]+0.007*[#   5]+0.007*[#   8]+0.003*[#   6]+0.003*[#   7]
          +0.003*[#   9]
    |psi|^2 = 0.141
==== e(  12) =    34.56970 eV ==== 
     psi = 0.004*[#   6]+0.004*[#   7]+0.004*[#   9]
    |psi|^2 = 0.013
==== e(  13) =    36.55994 eV ==== 
     psi = 0.024*[#  10]+0.005*[#   5]+0.005*[#   8]
    |psi|^2 = 0.035

 k =   0.6250000000 -0.1250000000  0.8750000000
==== e(   1) =   -70.26626 eV ==== 
     psi = 0.985*[#   1]+0.013*[#  10]
    |psi|^2 = 1.000
==== e(   2) =   -27.20691 eV ==== 
     psi = 0.331*[#   2]+0.331*[#   3]+0.331*[#   4]+0.001*[#   6]+0.001*[#   7]
          +0.001*[#   9]
    |psi|^2 = 1.000
==== e(   3) =   -27.08829 eV ==== 
     psi = 0.332*[#   2]+0.332*[#   3]+0.332*[#   4]+0.001*[#   6]+0.001*[#   7]
          +0.001*[#   9]
    |psi|^2 = 1.000
==== e(   4) =   -26.97181 eV ==== 
     psi = 0.333*[#   2]+0.333*[#   3]+0.333*[#   4]+0.001*[#   5]+0.001*[#   8]
          
    |psi|^2 = 1.000
==== e(   5) =    16.94566 eV ==== 
     psi = 0.329*[#   5]+0.329*[#   8]+0.095*[#   6]+0.095*[#   7]+0.095*[#   9]
          +0.048*[#  10]
    |psi|^2 = 0.993
==== e(   6) =    17.53528 eV ==== 
     psi = 0.224*[#   6]+0.224*[#   7]+0.224*[#   9]+0.150*[#   5]+0.150*[#   8]
          +0.002*[#  10]+0.002*[#   2]+0.002*[#   3]+0.002*[#   4]
    |psi|^2 = 0.980
==== e(   7) =    19.10037 eV ==== 
     psi = 0.289*[#   6]+0.289*[#   7]+0.289*[#   9]+0.054*[#  10]+0.013*[#   5]
          +0.013*[#   8]+0.002*[#   2]+0.002*[#   3]+0.002*[#   4]
    |psi|^2 = 0.952
==== e(   8) =    21.30269 eV ==== 
     psi = 0.446*[#   5]+0.446*[#   8]+0.026*[#   6]+0.026*[#   7]+0.026*[#   9]
          +0.009*[#  10]
    |psi|^2 = 0.981
==== e(   9) =    23.13255 eV ==== 
     psi = 0.314*[#   6]+0.314*[#   7]+0.314*[#   9]+0.022*[#   5]+0.022*[#   8]
          +0.010*[#  10]
    |psi|^2 = 0.997
==== e(  10) =    27.96016 eV ==== 
     psi = 0.537*[#  10]+0.039*[#   6]+0.039*[#   7]+0.039*[#   9]+0.015*[#   5]
          +0.015*[#   8]+0.010*[#   1]
    |psi|^2 = 0.695
==== e(  11) =    29.43127 eV ==== 
     psi = 0.233*[#  10]+0.009*[#   5]+0.009*[#   8]+0.007*[#   6]+0.007*[#   7]
          +0.007*[#   9]+0.004*[#   1]
    |psi|^2 = 0.274
==== e(  12) =    33.57234 eV ==== 
     psi = 0.068*[#  10]+0.007*[#   5]+0.007*[#   8]+0.002*[#   6]+0.002*[#   7]
          +0.002*[#   9]+0.001*[#   1]
    |psi|^2 = 0.089
==== e(  13) =    35.69433 eV ==== 
     psi = 0.004*[#   5]+0.004*[#   8]+0.003*[#  10]
    |psi|^2 = 0.011

 k =   0.5000000000  0.0000000000  0.7500000000
==== e(   1) =   -70.26810 eV ==== 
     psi = 0.988*[#   1]+0.010*[#  10]
    |psi|^2 = 1.000
==== e(   2) =   -27.17873 eV ==== 
     psi = 0.331*[#   2]+0.331*[#   3]+0.331*[#   4]+0.003*[#  10]+0.001*[#   5]
          +0.001*[#   8]
    |psi|^2 = 1.000
==== e(   3) =   -27.11253 eV ==== 
     psi = 0.332*[#   2]+0.332*[#   3]+0.332*[#   4]+0.002*[#   6]+0.002*[#   7]
          +0.002*[#   9]
    |psi|^2 = 1.000
==== e(   4) =   -26.94515 eV ==== 
     psi = 0.333*[#   2]+0.333*[#   3]+0.333*[#   4]
    |psi|^2 = 1.000
==== e(   5) =    17.56318 eV ==== 
     psi = 0.313*[#   5]+0.313*[#   8]+0.114*[#   6]+0.114*[#   7]+0.114*[#   9]
          +0.022*[#  10]
    |psi|^2 = 0.993
==== e(   6) =    17.81197 eV ==== 
     psi = 0.179*[#   5]+0.179*[#   8]+0.155*[#   6]+0.155*[#   7]+0.155*[#   9]
          +0.137*[#  10]+0.002*[#   2]+0.002*[#   3]+0.002*[#   4]
    |psi|^2 = 0.965
==== e(   7) =    18.31023 eV ==== 
     psi = 0.323*[#   6]+0.323*[#   7]+0.323*[#   9]+0.002*[#   2]+0.002*[#   3]
          +0.002*[#   4]
    |psi|^2 = 0.975
==== e(   8) =    21.00372 eV ==== 
     psi = 0.474*[#   5]+0.474*[#   8]+0.010*[#   6]+0.010*[#   7]+0.010*[#   9]
          +0.003*[#  10]
    |psi|^2 = 0.982
==== e(   9) =    22.57411 eV ==== 
     psi = 0.331*[#   6]+0.331*[#   7]+0.331*[#   9]
    |psi|^2 = 0.992
==== e(  10) =    26.74527 eV ==== 
     psi = 0.664*[#  10]+0.051*[#   6]+0.051*[#   7]+0.051*[#   9]+0.015*[#   5]
          +0.015*[#   8]+0.010*[#   1]
    |psi|^2 = 0.858
==== e(  11) =    31.85440 eV ==== 
     psi = 0.139*[#  10]+0.013*[#   5]+0.013*[#   8]+0.002*[#   1]
    |psi|^2 = 0.166
==== e(  12) =    32.32375 eV ==== 
     psi = 0.010*[#   6]+0.010*[#   7]+0.010*[#   9]
    |psi|^2 = 0.031
==== e(  13) =    37.23981 eV ==== 
     psi = 0.003*[#  10]+0.003*[#   5]+0.003*[#   8]
    |psi|^2 = 0.011

 k =  -0.2500000000 -1.0000000000  0.0000000000
==== e(   1) =   -70.26441 eV ==== 
     psi = 0.980*[#   1]+0.017*[#  10]+0.002*[#   5]+0.002*[#   8]
    |psi|^2 = 1.000
==== e(   2) =   -27.25182 eV ==== 
     psi = 0.332*[#   2]+0.332*[#   3]+0.332*[#   4]
    |psi|^2 = 1.000
==== e(   3) =   -27.04286 eV ==== 
     psi = 0.333*[#   2]+0.333*[#   3]+0.333*[#   4]
    |psi|^2 = 1.000
==== e(   4) =   -27.00107 eV ==== 
     psi = 0.333*[#   2]+0.333*[#   3]+0.333*[#   4]+0.001*[#   5]+0.001*[#   8]
          
    |psi|^2 = 1.000
==== e(   5) =    16.29965 eV ==== 
     psi = 0.471*[#   5]+0.471*[#   8]+0.053*[#  10]
    |psi|^2 = 0.997
==== e(   6) =    16.73702 eV ==== 
     psi = 0.331*[#   6]+0.331*[#   7]+0.331*[#   9]
    |psi|^2 = 0.996
==== e(   7) =    20.70206 eV ==== 
     psi = 0.287*[#   6]+0.287*[#   7]+0.287*[#   9]
    |psi|^2 = 0.863
==== e(   8) =    22.15580 eV ==== 
     psi = 0.486*[#   5]+0.486*[#   8]+0.017*[#  10]
    |psi|^2 = 0.990
==== e(   9) =    23.59478 eV ==== 
     psi = 0.333*[#   6]+0.333*[#   7]+0.333*[#   9]
    |psi|^2 = 1.000
==== e(  10) =    27.37112 eV ==== 
     psi = 0.045*[#   6]+0.045*[#   7]+0.045*[#   9]
    |psi|^2 = 0.136
==== e(  11) =    30.15936 eV ==== 
     psi = 0.839*[#  10]+0.033*[#   5]+0.033*[#   8]+0.017*[#   1]
    |psi|^2 = 0.923
==== e(  12) =    32.78922 eV ==== 

    |psi|^2 = 0.003
==== e(  13) =    34.25681 eV ==== 
     psi = 0.048*[#  10]+0.007*[#   5]+0.007*[#   8]+0.001*[#   1]
    |psi|^2 = 0.064

 k =  -0.5000000000 -1.0000000000  0.0000000000
==== e(   1) =   -70.26447 eV ==== 
     psi = 0.983*[#   1]+0.016*[#  10]
    |psi|^2 = 1.000
==== e(   2) =   -27.14809 eV ==== 
     psi = 0.332*[#   2]+0.332*[#   3]+0.332*[#   4]+0.002*[#   6]+0.002*[#   7]
          +0.002*[#   9]
    |psi|^2 = 1.000
==== e(   3) =   -27.14809 eV ==== 
     psi = 0.332*[#   2]+0.332*[#   3]+0.332*[#   4]+0.002*[#   6]+0.002*[#   7]
          +0.002*[#   9]
    |psi|^2 = 1.000
==== e(   4) =   -27.00324 eV ==== 
     psi = 0.332*[#   2]+0.332*[#   3]+0.332*[#   4]+0.002*[#   5]+0.002*[#   8]
          
    |psi|^2 = 1.000
==== e(   5) =    17.15000 eV ==== 
     psi = 0.492*[#   5]+0.492*[#   8]+0.001*[#   2]+0.001*[#   3]+0.001*[#   4]
          
    |psi|^2 = 0.988
==== e(   6) =    18.27377 eV ==== 
     psi = 0.322*[#   6]+0.322*[#   7]+0.322*[#   9]+0.002*[#   2]+0.002*[#   3]
          +0.002*[#   4]
    |psi|^2 = 0.972
==== e(   7) =    18.27377 eV ==== 
     psi = 0.322*[#   6]+0.322*[#   7]+0.322*[#   9]+0.002*[#   2]+0.002*[#   3]
          +0.002*[#   4]
    |psi|^2 = 0.972
==== e(   8) =    20.91861 eV ==== 
     psi = 0.458*[#   5]+0.458*[#   8]+0.082*[#  10]
    |psi|^2 = 0.997
==== e(   9) =    23.59680 eV ==== 
     psi = 0.333*[#   6]+0.333*[#   7]+0.333*[#   9]
    |psi|^2 = 1.000
==== e(  10) =    29.55739 eV ==== 
     psi = 0.876*[#  10]+0.042*[#   5]+0.042*[#   8]+0.017*[#   1]
    |psi|^2 = 0.977
==== e(  11) =    30.66019 eV ==== 
     psi = 0.009*[#   6]+0.009*[#   7]+0.009*[#   9]
    |psi|^2 = 0.026
==== e(  12) =    30.66019 eV ==== 
     psi = 0.009*[#   6]+0.009*[#   7]+0.009*[#   9]
    |psi|^2 = 0.026
==== e(  13) =    34.50138 eV ==== 
     psi = 0.006*[#   5]+0.006*[#   8]
    |psi|^2 = 0.012

Lowdin Charges: 

     Atom #   1: total charge =  16.8000, s =  2.9767, p =  5.9979, d =  7.8254, 
                 spin up      =   8.4002, s =  1.4884, 
                 spin up      =   8.4002, p =  2.9989, pz=  0.9996, px=  0.9996, py=  0.9996, 
                 spin up      =   8.4002, d =  3.9128, dz2=  0.8446, dxz=  0.7412, dyz=  0.7412, dx2-y2=  0.8446, dxy=  0.7412, 
                 spin down    =   8.3999, s =  1.4884, 
                 spin down    =   8.3999, p =  2.9989, pz=  0.9996, px=  0.9996, py=  0.9996, 
                 spin down    =   8.3999, d =  3.9125, dz2=  0.8446, dxz=  0.7411, dyz=  0.7411, dx2-y2=  0.8446, dxy=  0.7411, 
                 polarization =   0.0003, s =  0.0000, p =  0.0000, d =  0.0003, 
     Spilling Parameter:   0.0118

     PROJWFC      :      0.38s CPU      0.39s WALL


   This run was terminated on:   2:55:59  23Jul2026            

=------------------------------------------------------------------------------=
   JOB DONE.
=------------------------------------------------------------------------------=
